/*--------------------------------*- C++ -*----------------------------------*\
| =========                 |                                                 |
| \\      /  F ield         | OpenFOAM: The Open Source CFD Toolbox           |
|  \\    /   O peration     | Version:  5.x                                   |
|   \\  /    A nd           | Web:      www.OpenFOAM.org                      |
|    \\/     M anipulation  |                                                 |
\*---------------------------------------------------------------------------*/
FoamFile
{
    version     2.0;
    format      ascii;
    class       volScalarField;
    location    "9.2";
    object      rho;
}
// * * * * * * * * * * * * * * * * * * * * * * * * * * * * * * * * * * * * * //

dimensions      [1 -3 0 0 0 0 0];

internalField   nonuniform List<scalar> 
30538
(
1.26233234
1.289118258
1.289389397
1.289292435
1.28935001
1.289354804
1.289331743
1.289374517
1.28944719
1.289481293
1.289516178
1.289611255
1.289775342
1.289891766
1.289900196
1.289875333
1.289867799
1.289872268
1.289962714
1.297294284
1.262256819
1.289127972
1.289464625
1.289382705
1.289381164
1.289368422
1.289365906
1.289407903
1.289480412
1.289537794
1.289602557
1.2896815
1.289786311
1.289868758
1.289895827
1.289902752
1.289904517
1.289908168
1.289993328
1.29726136
1.26261661
1.289113265
1.289514301
1.289451362
1.289382377
1.289347764
1.289379616
1.289420994
1.289488208
1.289569541
1.289657765
1.289715419
1.289757585
1.289808315
1.289858884
1.289901371
1.289909392
1.289903916
1.289975801
1.297443007
1.262435544
1.289116906
1.289550311
1.289493092
1.289384751
1.289341209
1.289403354
1.289448262
1.289506015
1.289585925
1.28967212
1.289715407
1.289727395
1.289767844
1.289845203
1.289913667
1.28991536
1.28988663
1.289934573
1.297275798
1.263388079
1.289182195
1.289568934
1.289502766
1.289402849
1.289359122
1.289435511
1.289483497
1.289529162
1.289579618
1.289638662
1.289677854
1.289697833
1.289748408
1.28985112
1.289934112
1.289924796
1.289861828
1.289878188
1.297696106
1.263285395
1.289244514
1.289573457
1.289495571
1.289435438
1.289405495
1.289471291
1.289518612
1.289553514
1.289570567
1.289591363
1.289624299
1.289666719
1.289733471
1.289855024
1.28995061
1.289933986
1.289840918
1.289826732
1.297363324
1.264901001
1.289301552
1.289571516
1.289498577
1.289480059
1.289470241
1.289508001
1.289542254
1.289576829
1.289585592
1.289582421
1.289598703
1.289638818
1.289704766
1.289830315
1.28993634
1.289927353
1.289826055
1.289803126
1.2979133
1.264791262
1.28930216
1.289580694
1.289524234
1.289533938
1.289540494
1.289544498
1.28955483
1.28959028
1.289617568
1.289622001
1.289614394
1.289620503
1.289665226
1.289772691
1.289878712
1.289888864
1.289813158
1.289808195
1.29737725
1.267060756
1.289338163
1.28961041
1.289577224
1.289592626
1.28960619
1.289583597
1.289563428
1.289592925
1.289642085
1.289674857
1.289654188
1.289628449
1.289636618
1.289702324
1.289786059
1.289815758
1.289788323
1.289827117
1.297930395
1.266948373
1.289374687
1.289659598
1.289639865
1.289647838
1.289660771
1.289631788
1.289587818
1.289594105
1.289641316
1.289690693
1.289682661
1.289650785
1.28963321
1.289648888
1.289692732
1.289723226
1.289747349
1.289834345
1.297031513
1.269951106
1.289479834
1.289712292
1.28969499
1.289690715
1.289701578
1.289687532
1.289638947
1.289613792
1.289633072
1.289671594
1.28968137
1.289666373
1.289644509
1.289627564
1.289625743
1.289644773
1.289695869
1.289811654
1.297431078
1.269776005
1.289536832
1.289750062
1.289730062
1.289719685
1.289731712
1.2897447
1.289712163
1.289670118
1.289643389
1.289643111
1.289648647
1.289649184
1.289638586
1.289624268
1.289602722
1.289607561
1.289650297
1.289767057
1.296151246
1.27358503
1.289611607
1.289765307
1.289751632
1.289746029
1.289761992
1.289793144
1.289782405
1.289742637
1.289680444
1.289638737
1.289616811
1.289608837
1.289606089
1.289610136
1.28960637
1.289606392
1.289624805
1.289718011
1.296459366
1.273247823
1.289620412
1.289772748
1.289772536
1.28978224
1.289797116
1.289819649
1.289816899
1.289788872
1.289724915
1.289664739
1.289613192
1.289577497
1.289562539
1.289576601
1.289605732
1.289615604
1.289622537
1.289694878
1.294853493
1.277798237
1.289666291
1.289782755
1.289802119
1.289829643
1.289831117
1.289827015
1.289813554
1.289792359
1.289752597
1.289702977
1.289640591
1.289579059
1.289534404
1.289543628
1.289590743
1.289617505
1.289631355
1.28969147
1.29506072
1.277215478
1.289678835
1.289797316
1.289829071
1.289863934
1.28984894
1.289818586
1.289793211
1.289774463
1.289757934
1.289728626
1.28967239
1.289607082
1.289551602
1.289541017
1.28957884
1.289612592
1.28963867
1.289696378
1.293227497
1.282499678
1.289727992
1.289809568
1.289842811
1.289861965
1.289843482
1.289812827
1.28978251
1.289763175
1.289756469
1.28973082
1.289685156
1.289637764
1.28959699
1.289576971
1.28958656
1.289610048
1.289641963
1.289694552
1.293302779
1.281558026
1.289730281
1.289808721
1.289819547
1.289825249
1.289801964
1.289805662
1.289773145
1.289768592
1.289755282
1.289720331
1.28967831
1.289656937
1.289646415
1.289636126
1.289624495
1.289624062
1.289653211
1.289695928
1.291341359
1.287497814
1.289141594
1.289784127
1.288931639
1.289784531
1.288836573
1.289764303
1.289010338
1.289758801
1.289286782
1.289715566
1.28943956
1.289686659
1.289584218
1.289746845
1.289637192
1.289717597
1.289646515
1.28971531
1.291406145
1.323205719
1.24253488
1.314957841
1.236583601
1.305303388
1.236185985
1.299271241
1.241379528
1.297760384
1.250692815
1.300338671
1.261952243
1.304569641
1.27225931
1.307633447
1.278822315
1.307730244
1.280300922
1.304765601
1.277354355
1.257499383
1.289035099
1.28949282
1.289389556
1.289354417
1.289343404
1.289387438
1.289434242
1.289490467
1.289546902
1.289600503
1.289640412
1.289718453
1.289824403
1.289899916
1.289917664
1.289892196
1.289860319
1.289964181
1.299316503
1.257406521
1.28905925
1.289528506
1.289447889
1.289403847
1.2893832
1.289424566
1.289464357
1.289511678
1.289570008
1.28964115
1.289701782
1.289764749
1.28983979
1.289902992
1.289931346
1.289920146
1.289897368
1.289997723
1.299314177
1.257820026
1.289054581
1.289524676
1.289470346
1.289427808
1.289397701
1.289434505
1.289466677
1.289507845
1.289568378
1.289652315
1.289724297
1.289776922
1.289823264
1.289874431
1.289913048
1.289916202
1.289899585
1.28999274
1.29959038
1.257604398
1.289053869
1.289522211
1.289485348
1.289451465
1.289418101
1.289444941
1.289475786
1.289522865
1.289578233
1.289649315
1.289718362
1.28977017
1.289812868
1.289860733
1.289905808
1.289912654
1.289892538
1.289972922
1.299523591
1.258654656
1.289107217
1.289537661
1.28949751
1.289478753
1.289444905
1.2894564
1.289491453
1.289555175
1.289596329
1.289630537
1.289680709
1.289746215
1.289805369
1.289857014
1.289903133
1.289905874
1.289875082
1.289938287
1.300063961
1.258497179
1.289164072
1.289575342
1.289517777
1.289506194
1.289478749
1.289476729
1.289513362
1.289588966
1.289612476
1.289605441
1.28963614
1.289712657
1.289785374
1.289843381
1.289889938
1.289889545
1.289849541
1.289901559
1.299866252
1.260292011
1.289236984
1.289616945
1.289545801
1.289532369
1.289516231
1.289516712
1.289544831
1.28960639
1.289622035
1.289607133
1.289624491
1.289686873
1.289748198
1.289805125
1.289855395
1.289860526
1.289823243
1.289877265
1.300498934
1.260189251
1.289259879
1.289643969
1.289578368
1.289559378
1.289557789
1.2895732
1.289584298
1.289607908
1.289623358
1.289635698
1.289653385
1.289676325
1.289702212
1.289747797
1.289801146
1.289817963
1.289799851
1.289871696
1.300004987
1.262761029
1.289308295
1.289657889
1.289613629
1.289597429
1.289607125
1.289634267
1.289624631
1.289606713
1.289618693
1.289665479
1.289691888
1.289678962
1.289664656
1.289692442
1.289740817
1.289767301
1.289775499
1.28986913
1.300530244
1.262709195
1.289329196
1.289674584
1.289657001
1.289652054
1.289662145
1.289687689
1.289663271
1.289619598
1.289622565
1.289674789
1.289700553
1.289675204
1.289645937
1.289659063
1.289692546
1.289716883
1.28974139
1.28985273
1.299554258
1.266147189
1.289414821
1.289707236
1.289711216
1.289714417
1.289714451
1.289726288
1.289700869
1.289662595
1.289644695
1.28966377
1.289674762
1.28965921
1.289640413
1.289648292
1.289663255
1.289676956
1.289698327
1.289808038
1.29983186
1.266062209
1.289467818
1.289755781
1.289764955
1.289767985
1.289754095
1.289751828
1.289741678
1.289726886
1.289689014
1.28965783
1.289639395
1.289630429
1.289629059
1.289639146
1.289647345
1.289648885
1.28965577
1.289753084
1.298336519
1.27045753
1.289572846
1.289801651
1.28980469
1.289804432
1.28978012
1.289770521
1.289778139
1.289785407
1.289737509
1.289669526
1.289621359
1.289607485
1.289606218
1.289614556
1.2896287
1.289628898
1.289628469
1.289709438
1.29844491
1.270247277
1.289614936
1.28982841
1.289825299
1.289825699
1.289804457
1.289794557
1.289803832
1.289810999
1.289764814
1.289692486
1.289631653
1.289602971
1.289583817
1.289578682
1.289600834
1.289614958
1.289624005
1.28970077
1.296585567
1.275521874
1.28969127
1.289831763
1.289832887
1.28984319
1.289831734
1.28982542
1.289819084
1.289802421
1.289764922
1.289713923
1.289660103
1.289619657
1.289576201
1.289555475
1.289576492
1.289606337
1.289635232
1.289709942
1.296576763
1.275047408
1.289703562
1.289823105
1.289836312
1.289857884
1.289856052
1.289851068
1.289824886
1.289785505
1.289755871
1.289725581
1.289686917
1.289640607
1.289591541
1.289564306
1.289577504
1.289607447
1.289645042
1.289721032
1.294440967
1.281166183
1.289749491
1.28981779
1.28983845
1.289857748
1.28986348
1.289859683
1.289824743
1.289779267
1.2897567
1.289736461
1.289699855
1.289653408
1.289614708
1.289600893
1.289606099
1.289621197
1.289651518
1.28971533
1.294302978
1.28022954
1.28974056
1.289812198
1.289818865
1.289837344
1.289830095
1.289846604
1.289802473
1.289780844
1.289762737
1.289750607
1.289709486
1.28966073
1.289643077
1.289654296
1.289654404
1.289648669
1.289663623
1.28970939
1.292004634
1.287095053
1.289073314
1.289779274
1.288819923
1.289784949
1.288736147
1.289757118
1.288929461
1.289745677
1.289251583
1.289757839
1.289475063
1.289691553
1.289573477
1.28976148
1.289671344
1.28974964
1.289660712
1.289719763
1.291863678
1.324136244
1.23943485
1.314218118
1.232242194
1.302668357
1.231500474
1.295710031
1.23734735
1.294945301
1.248017176
1.299278276
1.260687968
1.305238334
1.272128184
1.309666045
1.279150864
1.310252038
1.280293233
1.306855799
1.27652398
1.251085436
1.288901833
1.289607716
1.289533402
1.289386459
1.289349501
1.289465673
1.289526933
1.289564493
1.289621257
1.289688287
1.289687731
1.289666974
1.289734541
1.289867584
1.289952163
1.289934811
1.289856051
1.2899725
1.304383835
1.25101327
1.288973608
1.289594682
1.289530378
1.289452144
1.289420534
1.289500783
1.289551289
1.289581861
1.289613377
1.289676075
1.289724639
1.289757608
1.28980768
1.289886195
1.289943286
1.289937622
1.289886152
1.290015774
1.304431333
1.251452833
1.289026381
1.289544105
1.289491834
1.289493037
1.289477537
1.289506758
1.289540437
1.289565057
1.289577316
1.289635388
1.28973115
1.289814719
1.289853118
1.289877564
1.289900441
1.289902836
1.289882931
1.290027694
1.304942982
1.251229947
1.289035164
1.289513461
1.289480388
1.289534357
1.289534058
1.289512049
1.289525406
1.28956079
1.289579231
1.289620493
1.28971694
1.289824631
1.289871431
1.289871392
1.289866971
1.289872147
1.289874976
1.290031918
1.304986925
1.252292201
1.289053138
1.289533333
1.289509103
1.289573001
1.289578669
1.289508894
1.289505741
1.289583458
1.289633163
1.28964069
1.289682732
1.289785079
1.289859265
1.289865209
1.289841587
1.289842421
1.289859907
1.290021292
1.305881951
1.252142094
1.289042739
1.289593351
1.289567495
1.289601718
1.289604712
1.289506427
1.289500731
1.289621028
1.289699028
1.289673499
1.289645841
1.289725737
1.289818943
1.289839317
1.28981092
1.289810156
1.289835907
1.289991627
1.30572374
1.254039822
1.289112899
1.289664997
1.289625149
1.289612098
1.289610531
1.289541512
1.289537791
1.289637732
1.289709219
1.289695379
1.289646671
1.289696429
1.289775012
1.289795238
1.289771994
1.28977771
1.289808876
1.289956186
1.306636566
1.254027628
1.289181222
1.289712709
1.289659562
1.289610921
1.289609375
1.289611873
1.289615401
1.289641215
1.289664656
1.289690835
1.289677659
1.28971126
1.289740566
1.289739966
1.289730323
1.289749756
1.289782567
1.289923684
1.306041252
1.256895667
1.28929
1.289715005
1.289672092
1.289626798
1.289626491
1.289688469
1.289698265
1.289650974
1.289617383
1.289644743
1.289701004
1.289730894
1.289713164
1.289695229
1.289700062
1.289732307
1.289758152
1.289889198
1.306593509
1.257021225
1.289308635
1.289698956
1.289691285
1.289677156
1.289676282
1.289746024
1.289758148
1.289683081
1.289617098
1.289633152
1.289689828
1.289709518
1.289681662
1.289668486
1.289686791
1.289717892
1.289730377
1.289851767
1.305296094
1.260964947
1.28936882
1.289707792
1.289735499
1.289758169
1.289748649
1.289769828
1.289776129
1.289738061
1.289671876
1.289646891
1.289654248
1.289657653
1.289646841
1.289657863
1.289681703
1.28970083
1.289696982
1.289799074
1.305340054
1.261002998
1.28938834
1.289759966
1.289800037
1.289834153
1.289809014
1.289764714
1.289763816
1.289786156
1.28974908
1.28968551
1.28962929
1.289609182
1.289616853
1.289642959
1.289667877
1.289673084
1.289661154
1.289757132
1.303381687
1.26621928
1.289517861
1.289830215
1.289852095
1.289873636
1.289837367
1.289756132
1.289753383
1.289815699
1.289806748
1.289728102
1.289632615
1.289595844
1.289600156
1.289619532
1.289633153
1.289636674
1.289635811
1.289730454
1.303064895
1.266100817
1.289589078
1.28987579
1.289870241
1.289868425
1.289841543
1.289778248
1.289774729
1.289820855
1.289816405
1.289744823
1.289655167
1.289615428
1.289603588
1.28959398
1.289591652
1.289604414
1.289626905
1.289732228
1.300594217
1.272468397
1.289709756
1.289873281
1.289858586
1.289849413
1.289843571
1.289830753
1.289822423
1.289813948
1.289789788
1.289733406
1.289678261
1.289649443
1.289620189
1.289583053
1.289565079
1.289590106
1.289632344
1.289740023
1.300020859
1.271994431
1.289721785
1.289842087
1.289840395
1.289840245
1.289853522
1.289883357
1.289868311
1.289816408
1.28976308
1.289714726
1.289690154
1.289667311
1.28963024
1.289592784
1.289576888
1.289599851
1.289640347
1.289739412
1.297248421
1.279402764
1.289769241
1.289819486
1.289833706
1.28984233
1.289861903
1.289899481
1.289882377
1.289815243
1.289754077
1.289725623
1.289707736
1.289670703
1.289628619
1.289618304
1.289619581
1.289629628
1.289650764
1.289719153
1.296503233
1.27828871
1.289738559
1.289809687
1.289816407
1.289846298
1.289833064
1.289875343
1.289845312
1.289804265
1.289754126
1.289761829
1.289741285
1.289671866
1.289633256
1.289654453
1.289675604
1.289673013
1.289670851
1.289706422
1.293566688
1.286578631
1.28888105
1.2897653
1.288558646
1.289813089
1.288500113
1.289762878
1.288804625
1.289746628
1.289211703
1.289792607
1.289556142
1.289713425
1.289607625
1.289753487
1.289751597
1.289782631
1.289722398
1.289728963
1.292831222
1.327961095
1.232749794
1.315831198
1.22403907
1.301846558
1.223516453
1.293423422
1.231644406
1.292755791
1.245737716
1.298224214
1.262034355
1.305524965
1.276477579
1.3107607
1.285174782
1.310871386
1.285921075
1.305711211
1.280601954
1.235894145
1.288494069
1.289676189
1.289644661
1.289526867
1.28947664
1.289547218
1.289591794
1.289670693
1.28972501
1.289733927
1.289702922
1.289692448
1.289738853
1.289817638
1.289893519
1.289931856
1.289887217
1.29003741
1.313806496
1.235692035
1.288596632
1.289628326
1.28958539
1.289580156
1.289538891
1.289568608
1.289621866
1.289690789
1.289696771
1.289698504
1.289738748
1.289803412
1.289836046
1.289864597
1.289905796
1.289932684
1.289895408
1.290069538
1.314069904
1.236198645
1.28871183
1.289579162
1.28952119
1.289601892
1.289585596
1.289586316
1.289628654
1.289665876
1.28963325
1.289648223
1.289750193
1.289858584
1.289890663
1.289885537
1.289883689
1.289886609
1.289861744
1.29006688
1.314965316
1.23562734
1.288742547
1.289594618
1.289538772
1.2896268
1.289635692
1.289630343
1.289635228
1.289636182
1.289607986
1.289653702
1.28975758
1.289849536
1.289887843
1.289888209
1.289859755
1.289839272
1.289831773
1.290065691
1.315542099
1.236829904
1.288713186
1.289632848
1.289607409
1.289653307
1.289687221
1.289657252
1.289610022
1.289618258
1.289663977
1.289726858
1.289740324
1.289772895
1.289843085
1.289884189
1.289830589
1.289793107
1.289810859
1.290063903
1.31698686
1.236273634
1.288593367
1.289662377
1.289679879
1.2896727
1.289722932
1.289658631
1.289565461
1.289607776
1.289763777
1.289834246
1.289713959
1.289686281
1.289791667
1.289862999
1.289793306
1.289750555
1.28979959
1.29005934
1.317398562
1.238655399
1.288656688
1.28971107
1.289729645
1.289686835
1.289726036
1.28967621
1.289576413
1.289612826
1.289786446
1.290402704
1.289709624
1.289657327
1.289768135
1.289830105
1.289751828
1.289725355
1.289791196
1.290018594
1.318632419
1.238453037
1.288806693
1.289759206
1.289747174
1.289695185
1.289701448
1.289710947
1.289664212
1.289651617
1.289755198
1.292316546
1.289720799
1.289709685
1.289778939
1.289790608
1.289721583
1.289721206
1.289774555
1.28995689
1.31822358
1.242274468
1.289061616
1.289781647
1.289748351
1.289713286
1.289691234
1.289757664
1.289767309
1.289721967
1.289666023
1.289861466
1.289698797
1.289766783
1.289785411
1.289752127
1.289708836
1.289728608
1.289748834
1.289876336
1.318603724
1.242558463
1.2891082
1.289764608
1.289759479
1.289758955
1.289724567
1.289801732
1.289838762
1.28978856
1.289666381
1.289614065
1.289678887
1.289757337
1.289750388
1.289710693
1.289701798
1.289731441
1.289722371
1.289818911
1.316954299
1.247956439
1.289166884
1.289757172
1.289791911
1.28982853
1.289805099
1.289823389
1.289844406
1.289829752
1.289723106
1.289648647
1.289655048
1.289684667
1.289677358
1.289669906
1.289688272
1.28971616
1.289698743
1.289784587
1.31634747
1.248254363
1.289128656
1.289789682
1.289841981
1.289888488
1.289879574
1.2898226
1.289798738
1.289822969
1.289793731
1.289741398
1.28966815
1.289620743
1.289614518
1.289635341
1.289655535
1.289678551
1.289680704
1.289797792
1.313490494
1.255554027
1.289297081
1.289852955
1.28988109
1.289911575
1.289916095
1.289817351
1.289752757
1.289785084
1.289845164
1.289829768
1.289697699
1.289597879
1.289592047
1.289622854
1.289619837
1.289633654
1.289663699
1.289802329
1.312194736
1.255864845
1.289405756
1.289898578
1.289894188
1.28988954
1.289913769
1.289840913
1.289763108
1.289769342
1.289859923
1.289852123
1.289707647
1.289607638
1.28961356
1.289633608
1.289601158
1.289596937
1.289640977
1.289801088
1.308465241
1.264732132
1.289626721
1.289894484
1.289879015
1.289862416
1.289898746
1.289887259
1.289824739
1.289812545
1.2898428
1.289800968
1.289688206
1.289637872
1.289652404
1.289651396
1.289598449
1.289583809
1.289621166
1.289760958
1.306734483
1.264568453
1.289664697
1.28985768
1.289857719
1.28985318
1.28988549
1.28991566
1.28989487
1.289872552
1.289819553
1.289733419
1.289673231
1.289662851
1.289667911
1.28965146
1.289608557
1.289598098
1.289618143
1.28973014
1.302620285
1.27487806
1.28975559
1.289829386
1.289845426
1.28986647
1.289871213
1.289895992
1.289923858
1.28989995
1.289788374
1.289702897
1.289698893
1.289695983
1.289656658
1.289632999
1.289627293
1.289637936
1.289644573
1.289702225
1.30070354
1.273677853
1.289704615
1.289812217
1.289803098
1.289885853
1.289810725
1.289831442
1.289875447
1.289882579
1.289745262
1.289710946
1.28975777
1.289736766
1.289654511
1.28961572
1.289656959
1.289695134
1.289694391
1.289712751
1.296483023
1.285147488
1.288522363
1.289726161
1.287982464
1.289779604
1.287879019
1.289594782
1.288400609
1.289727707
1.288980398
1.28972967
1.289545838
1.289801027
1.289644923
1.289710161
1.289756604
1.28980513
1.289775196
1.289748417
1.294627428
1.331155699
1.222380425
1.31336255
1.209670397
1.292517971
1.208156824
1.280434779
1.218816042
1.28232997
1.237726945
1.294237596
1.259203496
1.307935191
1.277876585
1.318271861
1.288428701
1.320592403
1.287342642
1.313477116
1.278123006
1.220407792
1.288125434
1.289692489
1.289728224
1.289708134
1.289715595
1.289656436
1.289635615
1.289752698
1.289806958
1.289792741
1.289776333
1.289779196
1.289747538
1.289749307
1.289792669
1.289873316
1.289898112
1.290194351
1.328084761
1.220033577
1.288147914
1.28961773
1.289637387
1.28974243
1.289765521
1.289665014
1.289659985
1.289789832
1.289845057
1.289796894
1.289777026
1.289839269
1.289881015
1.289871005
1.289850679
1.28988268
1.289890496
1.290202365
1.328559349
1.220359275
1.288241217
1.289613427
1.289594178
1.28973418
1.289755938
1.289689164
1.289704389
1.289781693
1.289817482
1.289751116
1.289731991
1.289846946
1.289951652
1.289937744
1.28987613
1.2898568
1.289840898
1.290154897
1.330205813
1.219399717
1.288292623
1.289735102
1.289696313
1.289713473
1.289715331
1.289774375
1.289795889
1.289741845
1.289720155
1.289728877
1.289727933
1.289811625
1.289906495
1.289928116
1.28988093
1.289832286
1.289798814
1.290105139
1.331304976
1.220373478
1.288271285
1.28981259
1.289802206
1.289683557
1.289692523
1.289869432
1.289855522
1.289671565
1.289662919
1.289827352
1.289785688
1.289750122
1.289784494
1.289860951
1.289871203
1.289815599
1.289779005
1.290067569
1.333883488
1.219546698
1.288063761
1.28978887
1.289850526
1.289660355
1.289715793
1.289940306
1.289850788
1.289605704
1.289651837
1.291052526
1.289927595
1.289734647
1.289676407
1.289790006
1.289841756
1.289800247
1.289781807
1.290051411
1.334663181
1.221927041
1.288139338
1.289755268
1.2898441
1.289690128
1.289750651
1.289946318
1.28983668
1.289614361
1.290434503
1.31891224
1.290404803
1.289755381
1.289652963
1.289760099
1.289808113
1.289786967
1.289784391
1.29000158
1.336839745
1.221826155
1.288323911
1.289758584
1.28982444
1.289763765
1.289765749
1.289888263
1.289832021
1.289723951
1.293074124
1.36078764
1.291486574
1.289781558
1.289725192
1.289777695
1.289785589
1.289770912
1.289768099
1.289936384
1.336314476
1.226172765
1.288703618
1.289813776
1.289831441
1.289829493
1.289775981
1.289842353
1.289869325
1.289811982
1.289978012
1.303231966
1.289881765
1.289795787
1.289793878
1.289792444
1.289769103
1.289751708
1.289733424
1.289839464
1.336862177
1.22698881
1.288779737
1.289849581
1.289863182
1.289866641
1.289797235
1.289849197
1.289926497
1.289923115
1.289746684
1.290017343
1.28969642
1.289800385
1.289801072
1.289769681
1.289741556
1.289725615
1.289696803
1.289788366
1.334402454
1.23352632
1.288889617
1.289858326
1.289891067
1.289879603
1.289845448
1.289894715
1.289951657
1.289934799
1.289772377
1.289657473
1.289706052
1.289755621
1.289730694
1.289705628
1.289696169
1.289697098
1.289681881
1.289773911
1.333091579
1.234495317
1.288790028
1.289847154
1.289912679
1.289876654
1.289891191
1.289954107
1.289936432
1.289848196
1.289779261
1.289786371
1.289771589
1.289690351
1.289633964
1.289639159
1.289649721
1.289668366
1.289687017
1.289823879
1.328842449
1.243841955
1.289017967
1.289857984
1.289926335
1.289873239
1.289922803
1.28999909
1.28989963
1.289714304
1.2897686
1.289911669
1.289825569
1.28964781
1.28957752
1.289617032
1.289623742
1.289641889
1.28968319
1.289837574
1.326037615
1.244704213
1.289140021
1.289883667
1.289934579
1.289870766
1.289936187
1.290003143
1.289875251
1.289677236
1.289791297
1.289936718
1.289808035
1.289628052
1.289591616
1.289644339
1.289631692
1.289620478
1.289653774
1.289822502
1.320462109
1.256364854
1.28949867
1.289896593
1.289923923
1.2898662
1.289941463
1.28999556
1.289886783
1.289778573
1.289844639
1.289873181
1.289738307
1.289632667
1.289645159
1.289688141
1.289650976
1.289610617
1.289615157
1.289742439
1.3167325
1.256503163
1.289559503
1.289882425
1.289896443
1.289878153
1.289943939
1.289946941
1.289894631
1.289901495
1.289890989
1.289794631
1.289682206
1.289647865
1.289680434
1.289695467
1.28965587
1.289617995
1.289605337
1.289704413
1.310761266
1.270068024
1.289730669
1.289856959
1.289852232
1.289911059
1.28994292
1.289853681
1.289874956
1.289969915
1.289893477
1.289733103
1.289672508
1.28969464
1.289693245
1.289658888
1.28963874
1.28964411
1.289642673
1.289696654
1.306861749
1.268590419
1.289637341
1.289813666
1.289742353
1.289944069
1.289858494
1.289731469
1.289788049
1.289972527
1.289833766
1.289678332
1.289696076
1.289757397
1.289700947
1.28961034
1.289630414
1.289691165
1.289712771
1.289745558
1.300943031
1.283710048
1.287886814
1.289684484
1.286947453
1.289803617
1.28698148
1.289428717
1.287777392
1.289769495
1.28888949
1.289650318
1.289524901
1.289867253
1.28982588
1.289742188
1.289867
1.289819012
1.289886559
1.289803226
1.297195093
1.338474414
1.207584975
1.315409996
1.190553909
1.288164832
1.189262385
1.272168889
1.205528849
1.274542305
1.232476081
1.289684767
1.262555118
1.308010039
1.288922487
1.322133867
1.304068442
1.323801167
1.301703364
1.311593109
1.28789462
1.192117575
1.286846939
1.289776671
1.289903665
1.289777581
1.289810087
1.289967698
1.289751272
1.289570623
1.289795536
1.290101615
1.289992691
1.289721932
1.289718109
1.289949789
1.289849326
1.289780936
1.289798243
1.290224132
1.354355727
1.191110726
1.286728797
1.289625984
1.289746584
1.289875493
1.289966188
1.289891562
1.289777583
1.289807372
1.289966493
1.290028683
1.28986073
1.289755724
1.289857454
1.289939771
1.289861562
1.289819241
1.289860695
1.290260189
1.355632844
1.191211272
1.286727405
1.289602621
1.289690472
1.289898384
1.289975626
1.289835692
1.28985224
1.289983714
1.289965328
1.28983825
1.289765548
1.289852653
1.289913391
1.289843798
1.289843282
1.289855013
1.289879019
1.290175821
1.358856897
1.1890701
1.286779287
1.289783979
1.28979659
1.289839082
1.289820161
1.289833547
1.289998614
1.290076436
1.289769216
1.28959583
1.289800501
1.290048711
1.289909128
1.289720148
1.289833753
1.289912771
1.289874802
1.290033896
1.362100703
1.189764735
1.286934895
1.289934583
1.289913796
1.289743061
1.289662451
1.289931259
1.290160575
1.290024713
1.289621228
1.290678418
1.289906224
1.290115458
1.289806631
1.289621097
1.289855166
1.289959232
1.289853476
1.289862156
1.367018473
1.187791399
1.286761321
1.289908576
1.289935129
1.289700513
1.289629926
1.290076116
1.29029241
1.289975175
1.290354376
1.31788366
1.290218694
1.2901169
1.289695521
1.289559834
1.289866039
1.289958684
1.289826845
1.289750716
1.370213614
1.190521742
1.286830063
1.289775417
1.289870405
1.289770799
1.289728169
1.290077117
1.290291923
1.290471868
1.308756367
1.573005518
1.299744228
1.290211045
1.289640065
1.289548559
1.289853975
1.289905435
1.289803187
1.289659799
1.373935219
1.189787196
1.286880053
1.289657868
1.289801988
1.289928305
1.289869896
1.289935355
1.290174235
1.291692845
1.333563497
1.559434679
1.316600471
1.290801567
1.289644153
1.28959741
1.28983463
1.289839682
1.289781878
1.289613479
1.37453798
1.195481692
1.287325281
1.289705195
1.289813357
1.290053674
1.289957684
1.289780936
1.290033226
1.290460933
1.300445564
1.413313798
1.294648411
1.289983044
1.289700225
1.289660617
1.289806005
1.289784185
1.28975082
1.289552414
1.37475358
1.196532626
1.287464845
1.289846445
1.289882154
1.290058735
1.289966958
1.289727708
1.289988395
1.290291709
1.290348266
1.303061754
1.289700037
1.289860092
1.289755389
1.289692543
1.289768818
1.289741418
1.289712402
1.289535606
1.371224626
1.205784644
1.28787573
1.289941521
1.289935614
1.289984401
1.289930931
1.28981659
1.290028867
1.290216699
1.289989327
1.290283875
1.289657157
1.289849463
1.289769673
1.289683475
1.289721809
1.28971137
1.289690191
1.289539978
1.367555882
1.207425253
1.287874098
1.289893382
1.289959911
1.289906611
1.289889034
1.290009704
1.29013619
1.290056272
1.289790085
1.289699674
1.289755299
1.289851051
1.289756407
1.289651884
1.289679135
1.289688573
1.289683092
1.289619098
1.36015894
1.221143897
1.288351156
1.28982596
1.289973115
1.289875137
1.289855989
1.290173074
1.290274201
1.289921866
1.28958421
1.289674501
1.289890672
1.28986931
1.289697114
1.289608839
1.289650161
1.289674383
1.289676406
1.289653462
1.353590825
1.223115981
1.288494328
1.289813908
1.289986612
1.289891369
1.289818905
1.290161136
1.290289587
1.289842916
1.289506801
1.289726743
1.290002866
1.289855753
1.289597553
1.289580499
1.289653679
1.289667956
1.289659459
1.289687696
1.343737466
1.240051742
1.289126215
1.289880213
1.289987736
1.289889752
1.289799671
1.290076777
1.290144238
1.289813811
1.289611616
1.289818356
1.289972215
1.28977016
1.289557959
1.289611642
1.289677207
1.289671703
1.289644099
1.289648454
1.336007322
1.240989176
1.289220973
1.289945739
1.289953252
1.289870251
1.289848084
1.289981078
1.289902102
1.289794681
1.289830484
1.28992079
1.289841394
1.2896545
1.289593519
1.289674518
1.289699337
1.289677389
1.289647651
1.28967259
1.325933485
1.260737546
1.289592071
1.289946814
1.289874675
1.289872883
1.289982906
1.289870881
1.289709076
1.289833573
1.29000923
1.289925428
1.289681442
1.289598615
1.289679578
1.289726956
1.289690109
1.289675338
1.28967304
1.289700157
1.318344633
1.258907425
1.289426439
1.289855493
1.289657455
1.289909234
1.289986553
1.289769398
1.289547089
1.28990144
1.290059083
1.289820952
1.289550548
1.289634756
1.289788378
1.28973965
1.289668094
1.289666792
1.289710266
1.289782925
1.308963228
1.280940757
1.28668919
1.289622055
1.284923798
1.289489256
1.285139682
1.288857439
1.286320446
1.289345049
1.288613576
1.2896022
1.2892476
1.289880274
1.290084021
1.289924191
1.289962622
1.289671587
1.289864252
1.289750431
1.301789002
1.34498895
1.18677406
1.311051685
1.161802113
1.268862995
1.158846287
1.24339744
1.181813561
1.251726297
1.219949534
1.280393245
1.26078848
1.312653811
1.29650799
1.33945662
1.316404787
1.3471842
1.308349568
1.329214181
1.28450749
1.162869295
1.285049532
1.289875183
1.290063896
1.289647783
1.289634682
1.290264459
1.290148267
1.289791168
1.289778981
1.289928741
1.290060679
1.290012635
1.289911579
1.289915953
1.289888029
1.289732452
1.289727711
1.290076393
1.385906168
1.160683449
1.284716947
1.289751248
1.289955405
1.2899023
1.289955537
1.29017103
1.290072768
1.28979704
1.289874194
1.29003431
1.289977454
1.289839192
1.289814993
1.28987443
1.289878375
1.289817639
1.289822185
1.290113064
1.388344044
1.160123079
1.284597416
1.28965457
1.289850615
1.290047474
1.290123036
1.28999734
1.289981577
1.289845733
1.289898176
1.290077745
1.289907445