/*--------------------------------*- C++ -*----------------------------------*\
| =========                 |                                                 |
| \\      /  F ield         | OpenFOAM: The Open Source CFD Toolbox           |
|  \\    /   O peration     | Version:  5.x                                   |
|   \\  /    A nd           | Web:      www.OpenFOAM.org                      |
|    \\/     M anipulation  |                                                 |
\*---------------------------------------------------------------------------*/
FoamFile
{
    version     2.0;
    format      ascii;
    class       volScalarField;
    location    "9.2";
    object      T;
}
// * * * * * * * * * * * * * * * * * * * * * * * * * * * * * * * * * * * * * //

dimensions      [0 0 0 1 0 0 0];

internalField   nonuniform List<scalar> 
30538
(
278.9235888
273.0927618
272.9750818
272.9647106
272.9699225
272.9715913
272.971131
272.9761811
272.983435
272.9872509
272.9905777
272.9994037
273.0141747
273.0253374
273.0270338
273.0255287
273.0250911
273.0251466
272.9995559
271.432645
278.9336976
273.0837126
272.9724755
272.9634614
272.9636395
272.9638221
272.965073
272.9699481
272.9770504
272.982689
272.9883917
272.9957965
273.0053899
273.0135433
273.016785
273.0180253
273.0184689
273.0185392
272.992892
271.4388054
278.8475788
273.0788631
272.9771136
272.9699555
272.9644024
272.9627099
272.9667184
272.9713339
272.9778002
272.9850595
272.9925655
272.9979852
273.0020908
273.0073333
273.0125067
273.0168315
273.0179904
273.0174721
272.9919456
271.3980291
278.8867649
273.0775818
272.9808487
272.9744114
272.9655995
272.962983
272.9693494
272.9739818
272.9792989
272.9859725
272.9930096
272.9969688
272.9984875
273.0026314
273.0100006
273.0165927
273.017486
273.0152195
272.9895524
271.4268502
278.6839936
273.0758218
272.9831481
272.9762795
272.9681681
272.9654465
272.9727132
272.9773145
272.9809908
272.9848439
272.9892451
272.9926497
272.9947513
272.9997695
273.009254
273.0171337
273.0172648
273.0123625
272.9856209
271.3300645
278.7155784
273.0782666
272.9842685
272.9766968
272.9720699
272.9703701
272.9764465
272.9803319
272.9827609
272.9834771
272.98429
272.9870715
272.9910463
272.9973325
273.0086276
273.0176341
273.0172726
273.0100054
272.9826973
271.391187
278.36241
273.0723606
272.9847568
272.9780011
272.9769565
272.9767729
272.9800857
272.9823594
272.9843743
272.9841672
272.982722
272.9841033
272.9878757
272.9941576
273.0058352
273.0159129
273.0162611
273.0084416
272.9820937
271.2722365
278.3808989
273.0689442
272.9862132
272.9811196
272.9824501
272.9834595
272.9835524
272.9833744
272.9851708
272.9863619
272.9855334
272.984975
272.9859323
272.9905212
273.0007251
273.0109514
273.0129339
273.0073231
272.9841486
271.3867955
277.8760437
273.0585741
272.9891974
272.9863342
272.9880748
272.9895089
272.9870547
272.9839728
272.9850471
272.9880996
272.9898077
272.9883057
272.9866731
272.9883234
272.9950301
273.0033761
273.0070062
273.0054841
272.9873156
271.2781495
277.9017661
273.0575563
272.9937374
272.9920748
272.9931105
272.994349
272.9911663
272.9858965
272.9849537
272.9879189
272.9912923
272.991121
272.9891916
272.9888206
272.9912945
272.9961709
272.9997727
273.0025507
272.98978
271.4726225
277.2538858
273.0507083
272.9982345
272.9968635
272.9967948
272.9977675
272.9957569
272.9901316
272.986633
272.9874168
272.9901957
272.9918536
272.9916688
272.9910893
272.990762
272.9916086
272.9940659
272.9989717
272.990065
271.3902468
277.301682
273.051072
273.0012776
272.9996295
272.9990567
273.0000938
273.0004317
272.9963578
272.9916556
272.9887956
272.9886543
272.9902837
272.9916996
272.9921991
272.9920139
272.9909661
272.9919488
272.9958814
272.9883335
271.6535868
276.4754415
273.0400375
273.0020724
273.001017
273.0009208
273.002346
273.00438
273.0024546
272.9982045
272.9927109
272.9894238
272.9890372
272.9898862
272.9911061
272.9923716
272.9925797
272.9928317
272.9943935
272.9867228
271.5821005
276.5459063
273.036066
273.0021977
273.0022632
273.0035696
273.0050202
273.0065312
273.0055804
273.0026332
272.9973607
272.9928822
272.9901696
272.9887662
272.9889114
272.9908823
272.9936197
272.9943908
272.9946602
272.9870294
271.9153002
275.5553735
273.0231043
273.0025526
273.0043067
273.0071742
273.0076194
273.007069
273.0054921
273.003469
273.000545
272.9972601
272.9937145
272.9901239
272.9876084
272.9889749
272.9929685
272.9949378
272.995531
272.9895856
271.8713799
275.6782934
273.0202289
273.0035214
273.0063078
273.0098275
273.0089424
273.0063355
273.0040048
273.0024776
273.0016943
273.0003109
272.9972105
272.9931809
272.9895371
272.98904
272.9920188
272.994454
272.9959144
272.9920731
272.2586156
274.5436512
273.0107674
273.0045122
273.0074539
273.0095816
273.008419
273.0059198
273.0033473
273.0019646
273.0020666
273.000981
272.998534
272.9958374
272.9932256
272.9917794
272.9922374
272.9937526
272.9956903
272.9943928
272.244482
274.7475954
273.0102072
273.0047246
273.008611
273.0066139
273.0083298
273.0055338
273.0052592
273.0027573
273.0033427
273.0001237
272.9980464
272.9968807
272.996686
272.9959346
272.9944779
272.99409
272.9958355
272.9959305
272.6591473
273.4802194
273.1345881
273.0072484
273.1903664
273.0027982
273.2037719
273.0100106
273.1672159
273.0086766
273.1039918
273.0001837
273.0464885
272.9942452
273.021653
272.9894931
273.007257
272.9854582
273.0036989
272.9948011
272.646991
266.0999776
283.3776362
267.7753699
284.7443496
269.7488988
284.8341652
271.0062849
283.6445742
271.3224466
281.5267608
270.7745326
279.0066356
269.8883682
276.7531842
269.2687083
275.3274933
269.2430334
275.0092358
269.8519943
275.6502585
279.9959186
273.1111585
272.983164
272.9718821
272.9689773
272.9685788
272.9732353
272.9783047
272.9840844
272.9897801
272.9948459
272.9989715
273.0059472
273.0153964
273.021925
273.0235453
273.0220363
273.0198531
272.9878267
271.0058071
280.0122883
273.10325
272.9771071
272.9679193
272.9642554
272.9631321
272.9675172
272.9718934
272.9768015
272.982537
272.9889773
272.9947566
273.0003466
273.0070563
273.0125226
273.0151031
273.0148511
273.0133502
272.9818356
271.0059028
279.9140562
273.0986611
272.9769877
272.9702464
272.9667788
272.9649184
272.9688669
272.972436
272.9765953
272.9822581
272.9895709
272.9961255
273.0006755
273.0048013
273.0092213
273.0127621
273.0138431
273.0129656
272.9822858
270.9466336
279.9595995
273.0969323
272.9771912
272.9721305
272.9694978
272.9674058
272.9704246
272.9736355
272.9780123
272.9828861
272.9888373
272.9948923
272.9992382
273.0029142
273.0070673
273.0112648
273.012801
273.0117271
272.9818553
270.9566807
279.7312664
273.0928916
272.9789433
272.9738883
272.9726435
272.9705283
272.9720916
272.9753685
272.9808357
272.9841477
272.986661
272.9908583
272.9962775
273.0012761
273.0058249
273.0102595
273.0115451
273.0096923
272.9804332
270.8384724
279.7749283
273.0945737
272.9827211
272.9764205
272.9758763
272.9742728
272.9744796
272.977575
272.9837065
272.9851895
272.9839081
272.9862292
272.9925744
272.998764
273.0039971
273.0085974
273.0096661
273.0071528
272.979038
270.8751451
279.3806426
273.0882706
272.9867198
272.9796456
272.9789879
272.9782624
272.9784378
272.9805002
272.9850607
272.9856303
272.9835095
272.9845594
272.9897217
272.9950656
273.0003441
273.0054209
273.0069958
273.0047582
272.9791025
270.7427888
279.4017977
273.0862036
272.9895595
272.9832176
272.9820722
272.9824529
272.9836672
272.9839716
272.985012
272.9853744
272.9855064
272.9866221
272.9885004
272.990984
272.9954396
273.000892
273.0034726
273.0028347
272.9804517
270.8491563
278.8279055
273.0742318
272.9910654
272.9868857
272.9859152
272.9871178
272.9891003
272.987375
272.9846634
272.984667
272.987818
272.989788
272.9887463
272.9879711
272.9910403
272.9961217
272.9995098
273.0010525
272.982566
270.7440745
278.8384444
273.0710196
272.9928228
272.991046
272.9909539
272.9920331
272.9936993
272.9905297
272.985557
272.9848222
272.9886132
272.9907509
272.9888594
272.986961
272.9888606
272.9926949
272.995849
272.9986846
272.9828554
270.9475639
278.0860158
273.0592881
272.9956594
272.99589
272.9964226
272.9964933
272.9968083
272.9935126
272.9890734
272.9867365
272.9879665
272.9891532
272.9883294
272.9874786
272.9889608
272.9911905
272.9933679
272.9958117
272.9819816
270.8842394
278.1109109
273.058276
272.999821
273.00048
273.0009642
272.9996991
272.9987206
272.9967426
272.9945127
272.9907586
272.9880361
272.9870552
272.9870079
272.9877522
272.9893838
272.9909401
272.9919474
272.9930247
272.9795292
271.187449
277.1517679
273.0462568
273.0034476
273.0037077
273.0039115
273.0016421
273.0000116
272.9996654
272.999553
272.995322
272.9898243
272.9865941
272.9863049
272.9871026
272.9884939
272.9903965
272.9911399
272.9914731
272.9795073
271.1584368
277.1984359
273.0440986
273.0054673
273.0052086
273.0054721
273.0034225
273.0018223
273.0017768
273.0019293
272.9981798
272.9926525
272.9885706
272.9871432
272.9863799
272.9865021
272.9888961
272.9906539
272.9916498
272.9813738
271.5471084
276.0512595
273.0301784
273.0054091
273.0055801
273.0066663
273.0054692
273.0042858
273.0030975
273.0014823
272.9987285
272.995281
272.9919271
272.9895474
272.9865957
272.9852215
272.9872953
272.9902425
272.9927899
272.9860646
271.5536161
276.1535875
273.0263494
273.0044464
273.0056333
273.0076745
273.0073196
273.0064028
273.0037313
273.000404
272.9984812
272.9969171
272.9948475
272.9918831
272.9882845
272.9861775
272.9873805
272.9902303
272.9934141
272.9894917
272.006433
274.8352265
273.0135606
273.00382
273.0056825
273.007471
273.0078534
273.0071662
273.0039609
273.0002574
272.9989926
272.9982507
272.9961916
272.9930862
272.9902122
272.9891382
272.989523
272.9909987
272.993486
272.9924476
272.0371226
275.0358022
273.0116801
273.0033944
273.0075171
273.0057921
273.0090871
273.0063857
273.0053292
273.0008471
273.0011757
272.9996095
272.9973741
272.9934294
272.9923037
272.9931788
272.9930416
272.9926745
272.9937964
272.9937418
272.5205759
273.5664832
273.1507316
273.0080547
273.2153987
273.0085433
273.2321841
273.0161957
273.1868795
273.0099922
273.1126618
273.0022138
273.0501873
272.991756
273.0162813
272.9848865
273.0040936
272.9830031
273.0014838
272.9945704
272.5509814
265.9106559
284.0866227
267.9263173
285.74772
270.2990635
285.9209696
271.7515511
284.568797
271.9108022
282.1334317
271.0023934
279.2905715
269.7518195
276.7769703
268.846926
275.2604122
268.7262295
275.0109112
269.4216655
275.829583
281.4189202
273.1335465
272.995208
272.9863847
272.9734334
272.9701516
272.9803456
272.9863708
272.9905976
272.9964608
273.0028544
273.0032781
273.0009083
273.0057795
273.0162677
273.0233453
273.0233825
273.018187
272.9729261
269.9448938
281.4410026
273.1296299
272.9848642
272.9770219
272.9699911
272.9673197
272.9744171
272.9794304
272.9829769
272.9866279
272.9925237
272.9970361
272.999146
273.0024556
273.0083079
273.0131087
273.0141016
273.0110395
272.967997
269.9366759
281.3481199
273.1291925
272.9805314
272.9739096
272.9738208
272.972694
272.9754689
272.9789482
272.9817981
272.9835833
272.988862
272.9971711
273.0035126
273.0057528
273.0070013
273.0089885
273.010669
273.0102854
272.9704323
269.8335549
281.400044
273.1285615
272.9780512
272.9732226
272.9778442
272.9781979
272.9766564
272.9782645
272.9817786
272.9837488
272.9872811
272.9953995
273.0037319
273.0066509
273.0058982
273.0056808
273.0075761
273.0090961
272.9732177
269.8266011
281.1592811
273.1195884
272.9798468
272.9760414
272.9816853
272.9827489
272.9771784
272.977226
272.984093
272.9883527
272.988682
272.9918352
272.9996451
273.004972
273.0048996
273.0031862
273.0046284
273.0073982
272.9749669
269.6417779
281.1905879
273.1155731
272.9852318
272.9814498
272.9847418
272.9857207
272.9777619
272.9774216
272.9876466
272.9939513
272.9911257
272.988052
272.9939384
273.0010355
273.002443
273.0004458
273.0016505
273.005096
272.9754882
269.6732269
280.7647477
273.106576
272.9915344
272.9868706
272.9862409
272.986916
272.9814219
272.9811027
272.9892464
272.994732
272.9917662
272.9875948
272.9909453
272.9969704
272.9986049
272.9972238
272.9988662
273.0026815
272.9757978
269.4842257
280.7735596
273.1084115
272.9959574
272.990363
272.9867472
272.9874207
272.9879336
272.9880671
272.9896255
272.9907061
272.9858009
272.9898667
272.9919049
272.9939457
272.9940452
272.993967
272.9967072
273.0004689
272.9758999
269.6053452
280.1374662
273.0977853
272.9963165
272.9919763
272.9886471
272.9893484
272.9947562
272.9952436
272.9903256
272.9864399
272.9874217
272.9916257
272.9934863
272.9917197
272.9904903
272.99182
272.9955984
272.9986148
272.9763708
269.4882656
280.1104775
273.0948701
272.9952728
272.9940786
272.9933656
272.9938728
272.9997701
273.0002578
272.9928952
272.9862117
272.986614
272.9907104
272.9918757
272.9893891
272.9887159
272.9913032
272.9950023
272.9967131
272.9751341
269.7502129
279.2326929
273.0756566
272.9960932
272.9981964
273.000527
273.0000645
273.0015956
273.0014377
272.9972622
272.9907402
272.9878226
272.9879658
272.9879128
272.9870186
272.988514
272.9916848
272.9944244
272.994648
272.9744182
269.7331184
279.2230372
273.071908
273.0007649
273.0039362
273.0071052
273.0050084
273.0007209
272.9998478
273.001015
272.9972416
272.9913136
272.9863094
272.9844397
272.9852337
272.988069
272.9914008
272.9930345
272.9925647
272.9730823
270.1316783
278.0725983
273.0559181
273.0067319
273.0085075
273.010409
273.0070317
272.9993707
272.9983972
273.0032132
273.0021681
272.9952911
272.9872058
272.9840586
272.9846276
272.9868925
272.9892708
272.9908563
272.9913842
272.9754254
270.1956425
278.1037321
273.0569913
273.0107032
273.0101168
273.0098002
273.0069532
273.0006823
272.9997351
273.003408
273.0030766
272.997127
272.9897779
272.9865044
272.9856816
272.9854129
272.9863778
272.988813
272.9913652
272.9782588
270.7122953
276.7185753
273.0405797
273.0103515
273.009069
273.0079569
273.0067262
273.0047355
273.0034692
273.0026807
273.0009417
272.9965683
272.9923101
272.9900424
272.9876401
272.9848894
272.9843647
272.9878784
272.9921332
272.9840961
270.8380443
276.8246772
273.0372143
273.0075977
273.0073383
273.0069084
273.0072507
273.0089838
273.0072743
273.0029162
272.9988739
272.9953244
272.9937444
272.9919586
272.9887655
272.9858192
272.9852837
272.9885627
272.9926646
272.9869656
271.4199042
275.2211611
273.0191883
273.0053847
273.0065477
273.0067972
273.0078154
273.0103098
273.0086096
273.0030595
272.9984085
272.9965743
272.9955164
272.9924772
272.9887755
272.9880116
272.9887408
272.9907081
272.993101
272.9901894
271.5748474
275.4566905
273.0165012
273.004281
273.0096508
273.007036
273.0106876
273.008562
273.0093759
273.0025361
273.0001696
272.9999251
272.9989265
272.9927033
272.9892811
272.9911216
272.9931844
272.9939356
272.9940879
272.9916595
272.1893785
273.6761919
273.1932861
273.0104589
273.2740617
273.012199
273.2871262
273.0181556
273.2197232
273.0098943
273.1190873
273.0041307
273.0479621
272.9911349
273.0017622
272.9805614
272.9902854
272.9830801
272.9925887
272.9924224
272.3451393
265.1421541
285.6273144
267.5970305
287.6650233
270.4775694
287.7878726
272.2317462
285.8885319
272.3699703
282.650981
271.228777
278.9996758
269.6980632
275.8278944
268.6161424
273.9730608
268.6011805
273.8101101
269.6604433
274.9501973
284.8675792
273.2205725
273.0039295
272.9974071
272.9868507
272.982542
272.988916
272.9935781
273.0013329
273.0069216
273.0081747
273.0054668
273.0029896
273.0049823
273.0107081
273.0177674
273.0232002
273.0211042
272.9603701
268.0043006
284.9306139
273.2184859
272.9905607
272.9832808
272.9823139
272.9789071
272.9817107
272.9870142
272.9939849
272.9954932
272.9960048
272.999204
273.0030108
273.0037447
273.0052032
273.0093608
273.0137266
273.0119313
272.9544251
267.9531467
284.8347053
273.2226617
272.986233
272.9778883
272.9844804
272.9833283
272.983641
272.9879793
272.9921654
272.9902174
272.9916135
272.9998221
273.0072861
273.008002
273.0066074
273.0070907
273.0092797
273.0085757
272.9574012
267.7754798
284.9766173
273.2265715
272.9876309
272.9795321
272.9870421
272.9882119
272.9880615
272.9891459
272.9900363
272.9882018
272.9918949
272.9999365
273.005931
273.007273
273.0064803
273.004698
273.0046914
273.0054636
272.9607397
267.6650363
284.6863792
273.2084604
272.990733
272.985569
272.989752
272.9933303
272.9911736
272.9877236
272.9889277
272.9931076
272.997948
272.9978796
272.9987458
273.0029692
273.0058536
273.0019336
273.0002616
273.0031903
272.9660822
267.3781916
284.7906742
273.1954805
272.993299
272.9919319
272.9918709
272.9971129
272.992176
272.9846657
272.9884745
273.0016944
273.0047184
272.9950628
272.990743
272.9981659
273.0039033
272.9986569
272.9963379
273.0018373
272.9704337
267.297751
284.2335157
273.1791838
272.9973308
272.9964363
272.9935695
272.9980836
272.9944848
272.9862732
272.9892708
273.002486
272.8932399
272.9937668
272.9878027
272.9959348
273.0010893
272.9952249
272.9940977
273.0008393
272.9739741
267.0446794
284.2999674
273.1870815
273.0016354
272.9983074
272.9948259
272.9966301
272.9980726
272.9942589
272.9927343
272.9917757
272.4599277
272.9907792
272.991927
272.9967514
272.9978658
272.992915
272.9938389
272.999279
272.9725387
267.1163514
283.4478675
273.1761891
273.0033903
272.9988293
272.9969001
272.9962854
273.00244
273.0032372
272.9987019
272.9925198
272.9464969
272.9922445
272.9965559
272.9973153
272.9947989
272.9922298
272.9947689
272.9971953
272.9712177
267.0241329
283.3903847
273.1738447
273.0021953
273.000213
273.0011987
272.9993898
273.0063301
273.0092777
273.0042066
272.9926146
272.9859305
272.9904675
272.9957633
272.9944963
272.9916594
272.9922436
272.9956062
272.9953136
272.9677212
267.3480129
282.1540511
273.1374648
273.0013579
273.003341
273.0073566
273.0062361
273.0079376
273.0093588
273.0073813
272.9971973
272.9894777
272.9884513
272.9897228
272.9886106
272.9887502
272.9919083
272.9952101
272.9940364
272.9699743
267.4692331
282.0706975
273.1241567
273.0043082
273.0078375
273.0124271
273.0122165
273.0072522
273.0047902
273.0062823
273.0029335
272.9972823
272.9897238
272.9845926
272.983753
272.9865293
272.990076
272.9931376
272.9935864
272.9720911
268.0572021
280.4236653
273.0917498
273.0094935
273.011315
273.0140968
273.0145828
273.0059019
273.0000668
273.0024748
273.0070594
273.0048088
272.9925023
272.9830396
272.9824083
272.9861385
272.9879113
272.990412
272.9933233
272.9781284
268.3299021
280.3651024
273.0919089
273.0135968
273.0125538
273.0118285
273.0136242
273.0070237
273.0001276
273.0005919
273.0080526
273.0067494
272.9936296
272.9843372
272.984766
272.9875859
272.9869132
272.9880843
272.9922803
272.9790527
269.0970547
278.4161592
273.064322
273.0130265
273.011192
273.0090987
273.011632
273.0102447
273.0047438
273.0038054
273.0063588
273.0024322
272.992248
272.9873503
272.9884278
272.9893596
272.9868051
272.9872886
272.9909811
272.9820134
269.4502854
278.459549
273.0602096
273.0098174
273.0091901
273.0079247
273.0099344
273.0121801
273.0103764
273.0086517
273.0042764
272.9967967
272.99134
272.9899125
272.9900713
272.9894321
272.9875245
272.9883819
272.99066
272.9811653
270.2965876
276.2048044
273.030409
273.0069468
273.0078962
273.0086997
273.0084711
273.0102477
273.012809
273.0110242
273.0017007
272.9944353
272.9939074
272.9931972
272.9894876
272.9879644
272.9889675
272.9913917
272.9925347
272.98576
270.6920575
276.4548777
273.0264216
273.0050281
273.0121601
273.0103498
273.0122748
273.0051667
273.0146147
273.0098407
273.0004009
272.9953574
272.9997922
272.9971404
272.989727
272.9868546
272.991243
272.995904
272.9961114
272.989434
271.5746992
273.979553
273.270446
273.0153122
273.3941485
273.0332525
273.4127377
273.0372179
273.3120349
273.0270708
273.1576262
273.0022592
273.0610158
272.9947432
272.9978287
272.9726802
272.979268
272.9845235
272.9938777
272.9943657
271.9679006
264.5056023
288.0514912
268.0957733
291.0844111
272.4381029
291.44294
274.985944
288.900611
274.588577
284.4765429
272.0573624
279.6339344
269.213278
275.5254647
267.0760709
273.2755023
266.6242755
273.5161918
268.0744831
275.484846
288.496142
273.3340594
273.0085015
273.0053816
273.0038321
273.0051415
273.0007323
272.999908
273.0105775
273.0159471
273.0146361
273.0123012
273.0100677
273.005107
273.0055088
273.0113766
273.0203489
273.0235207
272.9413759
265.1294878
288.5939292
273.32707
272.9928683
272.9886476
272.9976203
273.0003933
272.9923902
272.9929456
273.0049803
273.0104926
273.0061081
273.0031376
273.0058985
273.0072184
273.0064945
273.0067756
273.0115058
273.0126269
272.9338629
265.035156
288.5370699
273.3292892
272.9924124
272.9850982
272.9972007
272.9998543
272.9947387
272.9971306
273.0047086
273.008432
273.0021549
272.9989821
273.0062411
273.0129662
273.0118013
273.0083469
273.0085252
273.0077927
272.9362328
264.707567
288.7761041
273.3404173
273.0030592
272.9940351
272.9958559
272.9969022
273.0025875
273.0054558
273.0017211
273.0003209
273.000149
272.9981182
273.0026452
273.0086788
273.010562
273.008139
273.0055729
273.0034982
272.9405031
264.4909977
288.526645
273.3182171
273.0094776
273.0033141
272.9937766
272.9956294
273.0114301
273.0112098
272.9962061
272.9956393
273.0012326
273.0024648
272.9965979
272.9977968
273.0044396
273.0067199
273.0032877
273.0011169
272.9497615
263.9847281
288.6861732
273.3025919
273.0075611
273.0075849
272.9922935
272.9983305
273.0183681
273.0114471
272.9909847
272.9902073
272.7719387
273.0127059
272.9947723
272.9882334
272.9980836
273.0037303
273.0012434
273.0006745
272.9592252
263.8357476
288.1102638
273.2791783
273.0043433
273.0072071
272.9953281
273.0019472
273.0196084
273.010876
272.9895587
272.8233862
267.0225321
272.9289466
272.9953635
272.9859121
272.9953027
273.0005804
272.9995901
273.0003477
272.9691284
263.4047493
288.1647404
273.291767
273.0047481
273.0058276
273.0022245
273.0038922
273.0151672
273.0107103
272.9864886
272.2725803
258.7699524
272.6718877
272.9928899
272.9917384
272.9967493
272.9986348
272.9980429
272.998654
272.9718192
263.4966169
287.1849876
273.2748936
273.0088152
273.0067673
273.0083509
273.0053135
273.011453
273.0139483
273.0078947
272.9384817
270.1510896
272.97085
272.9984134
272.9974107
272.9980567
272.997502
272.9965278
272.9957572
272.9737448
263.372544
287.010786
273.2758742
273.0120462
273.0098696
273.0118369
273.0072785
273.0121145
273.0186502
273.0178245
273.0002687
272.8952445
272.9919271
272.998852
272.9981509
272.9965213
272.9957583
272.9949009
272.9929574
272.9711806
263.8485511
285.4685796
273.2177049
273.0120062
273.0125176
273.0129815
273.0112087
273.0156819
273.0204728
273.0184221
273.0032421
272.9891905
272.9928053
272.9950226
272.9924321
272.9916142
272.9928356
272.9934066
272.9923264
272.9754918
264.1134801
285.2116018
273.1960448
273.0109916
273.0143294
273.0124192
273.0145727
273.0202013
273.0185366
273.0105236
273.0034533
273.0021473
272.9983543
272.9896623
272.9845881
272.9867074
272.989978
272.9921626
272.9936379
272.9776938
264.9726849
283.0530865
273.1381208
273.0109983
273.0153219
273.0114403
273.0161881
273.0231199
273.0146452
272.9985678
273.0022102
273.0125324
273.0030344
272.9862685
272.9802242
272.9855321
272.9887746
272.9910514
272.9942239
272.9830936
265.5429719
282.8721011
273.1383051
273.0131533
273.0158869
273.0104212
273.0163423
273.0223682
273.0117524
272.9948101
273.0037841
273.0145853
273.0016693
272.9849534
272.9819096
272.9884471
272.9901596
272.9900734
272.9924011
272.9794492
266.6590872
280.2733617
273.0909469
273.0134508
273.014648
273.0092895
273.0158911
273.0208996
273.0119552
273.0028643
273.0079116
273.008983
272.9957957
272.9856996
272.9868364
272.9924808
272.9920035
272.9895697
272.9894979
272.9785179
267.4002378
280.2549319
273.0887234
273.0120533
273.0119384
273.0097253
273.0152668
273.0161346
273.0120451
273.0127976
273.0114317
273.0022076
272.9913856
272.9875459
272.9903125
272.9932359
272.9922816
272.9901612
272.9887385
272.9748371
268.6093833
277.2538721
273.0418073
273.0091249
273.0079952
273.0120834
273.0149464
273.0076755
273.0101075
273.0184238
273.0116064
272.9971972
272.9911541
272.992298
272.992098
272.9903438
272.9906971
272.9921573
272.9918406
272.9820362
269.4118085
277.5600983
273.0394236
273.0049569
273.0136402
273.0149604
273.0238348
272.9977364
273.0118774
273.018845
273.0094144
272.9928926
272.9941868
272.9985132
272.993273
272.9866757
272.9896982
272.9959635
272.9974399
272.989017
270.644997
274.2825423
273.4025254
273.014613
273.5938297
273.0425214
273.6202064
273.0451807
273.4222299
273.0445843
273.1934551
272.9961519
273.0417801
272.9892784
272.9727935
272.9610927
272.945541
272.9790146
272.9765345
272.9940526
271.4344123
263.0627385
291.5827594
267.669784
295.753421
273.3645397
296.0767611
276.7604776
292.0810168
276.2769642
285.6906949
273.0034807
278.8823116
269.2014739
273.1710355
266.2961606
269.9898525
265.9755479
270.5043505
268.4672204
273.3969295
295.3639467
273.6423059
273.0260717
273.0213381
273.011733
273.0156741
273.0297462
273.0120857
272.9973604
273.0168925
273.041621
273.0302851
273.003681
273.0022332
273.0243814
273.0188336
273.0140783
273.015809
272.9363752
259.9987562
295.5978505
273.6254285
273.0040905
272.999063
273.0106324
273.0196625
273.0139841
273.0051765
273.0084176
273.022405
273.0264492
273.0093978
272.997318
273.0047569
273.0138133
273.0101367
273.0074518
273.010386
272.9327965
259.751746
295.5810081
273.6222148
273.0020086
272.9943757
273.012745
273.0208843
273.0097418
273.0124346
273.024454
273.0227184
273.0105144
273.0011285
273.0056431
273.0096673
273.005387
273.0079916
273.0096513
273.0112713
272.9434223
259.1285335
296.1349204
273.6573113
273.0185492
273.0039012
273.0080661
273.0080261
273.0101191
273.0259803
273.0330479
273.0065757
272.982117
273.0041142
273.0223239
273.0093544
272.9944803
273.0064435
273.0135034
273.0100649
272.9541803
258.4983594
295.9512092
273.64306
273.0312211
273.0143928
273.0003927
272.9950098
273.0191452
273.0409089
273.0294204
272.9868162
272.7183512
273.0120755
273.0277585
273.000571
272.9856076
273.0077157
273.0161837
273.0073124
272.9728745
257.5599867
296.4102612
273.6480536
273.0296942
273.0165928
272.9973248
272.9926893
273.0323321
273.0529415
273.0218588
272.8135687
267.1036289
272.9856222
273.0273968
272.9911044
272.9801879
273.0081201
273.0149561
273.0040392
272.9921066
256.960755
295.7160545
273.6107338
273.0176482
273.0114313
273.0040144
273.0014551
273.0328686
273.0518432
272.9199039
268.9777452
223.8768606
271.0195391
272.9939736
272.9860293
272.9788744
273.0066987
273.0095582
273.0012148
273.0167614
256.2722125
295.9181182
273.6112693
273.0078969
273.0059823
273.0183049
273.0141135
273.0210466
273.0374614
272.6784872
263.9726898
225.7801125
267.5094785
272.8291978
272.984668
272.9825875
273.0049154
273.0035823
272.9990447
273.0317129
256.1662847
294.5559598
273.553516
273.0097153
273.007207
273.0294428
273.0220071
273.0078979
273.0298516
272.9885991
270.7663217
249.0471455
271.9646623
272.9881951
272.9897533
272.9876989
273.0026507
272.9989085
272.9964143
273.0422341
256.1253436
294.3236157
273.5548158
273.02173
273.013375
273.0298336
273.0227304
273.0030864
273.0264496
273.0502242
272.9586397
270.1383827
272.9713268
273.003417
272.9943714
272.990669
272.9997787
272.9956944
272.9934848
273.0381008
256.7810319
292.0440896
273.4520579
273.0268458
273.0179296
273.0232852
273.019366
273.0100686
273.0289725
273.0443887
273.0205364
272.8579011
272.9886306
273.0026064
272.9958217
272.9903929
272.996273
272.9938356
272.9920115
273.0348692
257.4714369
291.6064947
273.4165827
273.021799
273.0195586
273.0160277
273.0151123
273.0259977
273.0373822
273.0296917
273.0053904
272.991737
272.9968994
273.0026472
272.9949347
272.9883066
272.9931276
272.9927542
272.9918368
273.0224516
258.8773601
288.3151756
273.2969619
273.0127157
273.0200924
273.0123871
273.011094
273.0391319
273.0484336
273.0178745
272.9873919
272.9926419
273.0081906
273.004283
272.9902515
272.9850921
272.9910811
272.9924048
272.9916011
273.0147022
260.1336326
287.8628209
273.279699
273.0107515
273.0207452
273.0127983
273.0071067
273.037233
273.0487054
273.0108114
272.980403
272.9968835
273.0176517
273.0032934
272.9819397
272.9830373
272.9918691
272.9925628
272.9904906
272.9971053
262.0315233
283.961789
273.1711669
273.013476
273.0199542
273.0117451
273.0047074
273.0293219
273.0356021
273.0074232
272.9888019
273.0042606
273.0149781
272.9962206
272.9788159
272.9860711
272.9942518
272.9933414
272.9895836
272.9902663
263.534898
283.7580478
273.1620954
273.0183702
273.0163391
273.0093471
273.0081713
273.0205008
273.0142654
273.0048616
273.0069556
273.0128261
273.0040547
272.9868971
272.9823135
272.9916814
272.9962431
272.9940648
272.9903164
272.9811308
265.5326804
279.2946484
273.0707144
273.0166653
273.0096749
273.0089959
273.0197331
273.0104936
272.997226
273.0079059
273.0220855
273.0136021
272.9911332
272.9833516
272.9907779
272.9966859
272.9956234
272.9940341
272.9929085
272.9875276
267.0674108
279.676259
273.0683869
273.0083537
273.0245504
273.0130085
273.0560566
273.0049238
273.0025171
273.0149354
273.0319564
273.0052618
272.9815776
272.9875801
273.0007808
272.9984536
272.9936684
272.993517
272.9962956
272.9922763
268.9914419
274.8602577
273.6305316
273.0199731
274.002752
273.0990423
274.0899446
273.1888216
273.6870941
273.1379308
273.3228219
273.0177095
273.0378654
272.9572725
272.955005
272.9614173
272.9319615
272.9951336
272.968467
273.0109891
270.4788159
261.7943473
296.6928808
268.5502369
303.0590366
277.5146881
303.8647861
283.1732185
297.9305958
281.3182974
288.6408649
274.9838455
279.2480294
268.2360284
271.5948857
262.8775982
267.4635853
261.3465856
269.1191791
264.9078801
274.1177586
302.8060174
274.0467626
273.0536812
273.0366733
273.00271
273.0019743
273.0569676
273.0478162
273.0164395
273.0173029
273.0268589
273.0346148
273.0258812
273.0177917
273.0216654
273.0222378
273.0077557
273.0067605
272.9454455
254.0732964
303.351299
274.040256
273.034913
273.0190783
273.0145639
273.0200314
273.0389924
273.0316056
273.0085861
273.0151456
273.0261831
273.0172718
273.0024318
273.0008152
273.0088628
273.0118068
273.0055522
273.0042803
272.9480833
253.6309352
303.4898527
274.0378035
273.0271772
273.010241
273.0274399
273.0354105
273.0249947
273.0241563
273.0120803
273.0166764
273.0293623