/*--------------------------------*- C++ -*----------------------------------*\
| =========                 |                                                 |
| \\      /  F ield         | OpenFOAM: The Open Source CFD Toolbox           |
|  \\    /   O peration     | Version:  5.x                                   |
|   \\  /    A nd           | Web:      www.OpenFOAM.org                      |
|    \\/     M anipulation  |                                                 |
\*---------------------------------------------------------------------------*/
FoamFile
{
    version     2.0;
    format      ascii;
    class       volScalarField;
    location    "3.6";
    object      p;
}
// * * * * * * * * * * * * * * * * * * * * * * * * * * * * * * * * * * * * * //

dimensions      [1 -1 -2 0 0 0 0];

internalField   nonuniform List<scalar> 
30538
(
101288.5308
101263.5703
101252.0379
101247.82
101250.8967
101253.9589
101256.0441
101260.3246
101270.9346
101283.2424
101295.0168
101304.0188
101311.3467
101318.736
101327.0053
101334.7274
101337.8094
101334.2205
101323.9989
101308.8172
101288.5246
101263.9171
101252.6925
101248.8263
101252.0757
101255.2052
101257.148
101260.8873
101270.6119
101282.3016
101293.8872
101302.9849
101310.2908
101317.4126
101325.416
101332.9777
101336.1513
101332.7824
101322.9025
101308.3684
101288.4791
101264.4636
101253.8417
101250.5926
101254.2134
101257.5122
101259.1947
101261.8878
101269.9969
101280.5307
101291.8149
101301.1013
101308.4723
101315.2402
101322.7835
101330.0283
101333.3412
101330.3383
101321.0398
101307.5993
101288.3322
101264.9703
101255.0944
101252.6397
101256.8516
101260.4976
101261.8395
101263.0754
101269.0694
101278.1575
101289.0986
101298.6943
101306.3225
101312.7944
101319.8223
101326.6511
101330.112
101327.535
101318.8877
101306.7155
101288.0785
101265.2292
101256.0228
101254.3121
101259.3389
101263.5066
101264.5577
101264.1423
101267.8686
101275.452
101286.1101
101296.0574
101304.2186
101310.5707
101317.1551
101323.5368
101327.1535
101324.9614
101316.9226
101305.8867
101287.7017
101265.1638
101256.3622
101255.1754
101261.0465
101265.8471
101266.6847
101264.7492
101266.458
101272.7343
101283.1872
101293.5509
101302.4265
101308.9116
101315.179
101321.1864
101324.9059
101322.997
101315.3894
101305.2441
101287.302
101264.8408
101256.0645
101255.0703
101261.5894
101266.899
101267.6057
101264.5754
101264.9494
101270.3667
101280.8078
101291.5782
101301.2144
101308.0353
101314.1965
101319.841
101323.5961
101321.7919
101314.4331
101304.8523
101286.9765
101264.4894
101255.2802
101254.0212
101260.658
101266.1595
101266.8223
101263.485
101263.386
101268.7477
101279.2829
101290.6053
101300.8255
101308.1039
101314.2407
101319.5853
101323.219
101321.2802
101314.0838
101304.7605
101286.8485
101264.3785
101254.4162
101252.2953
101258.3652
101263.548
101264.1914
101261.4173
101261.9634
101268.0457
101279.053
101290.8779
101301.4618
101309.1238
101315.4437
101320.5062
101323.7146
101321.4576
101314.2955
101304.899
101286.969
101264.6707
101253.7963
101250.4095
101255.0184
101259.2936
101259.9805
101258.5679
101260.7941
101268.2727
101280.1019
101292.3639
101303.0469
101311.089
101317.6891
101322.5344
101324.9938
101322.2792
101314.9496
101305.2647
101287.3289
101265.5061
101253.7103
101248.8972
101251.1201
101254.1028
101254.8801
101255.3991
101260.0274
101269.4481
101282.3298
101294.8427
101305.5772
101313.9546
101320.8461
101325.4723
101326.9888
101323.6432
101315.9265
101305.7749
101287.8939
101266.8556
101254.3228
101248.0102
101247.5909
101248.9768
101249.8998
101252.5832
101259.7876
101271.3931
101285.1847
101297.8803
101308.5842
101317.4207
101324.6103
101329.0154
101329.4515
101325.2992
101317.0672
101306.3634
101288.5996
101268.5971
101255.677
101248.0646
101245.4108
101244.9726
101246.1267
101250.7677
101260.416
101273.8527
101288.2395
101300.8842
101311.5697
101320.9017
101328.4948
101332.6394
101331.9176
101326.8805
101318.1629
101306.9109
101289.3946
101270.6882
101257.7989
101249.4045
101245.0342
101243.2119
101244.3649
101250.5588
101262.0249
101276.5865
101290.9183
101303.2335
101313.8601
101323.6328
101331.5559
101335.5793
101333.6737
101327.8973
101318.8566
101307.2884
101290.3025
101273.1544
101261.0137
101252.4628
101247.4212
101244.4163
101245.5626
101252.4846
101264.9125
101279.4317
101293.0829
101304.5051
101314.9152
101324.7815
101332.9451
101336.588
101333.7695
101327.5421
101318.7669
101307.2811
101291.3484
101276.1863
101265.2742
101257.4346
101252.3249
101248.9643
101249.8733
101256.8385
101268.8668
101282.3421
101294.4829
101304.6274
101314.3289
101323.8241
101331.6039
101334.8221
101331.4735
101325.4284
101317.4752
101306.8255
101292.6471
101279.9411
101270.8237
101264.1977
101259.7132
101256.5343
101257.2027
101263.448
101274.0896
101285.4968
101295.4493
101303.84
101312.296
101320.7639
101327.6217
101330.2044
101326.8551
101321.5574
101314.9969
101305.8926
101294.3074
101284.6329
101277.7008
101272.7593
101269.3349
101266.7972
101267.1575
101272.0996
101280.3307
101289.0172
101296.3321
101302.6294
101309.239
101315.9789
101321.3399
101323.177
101320.3676
101316.2799
101311.4579
101304.5489
101296.367
101290.1591
101285.8728
101282.7382
101280.7383
101278.9632
101279.235
101282.2908
101287.5626
101292.9587
101297.485
101301.4315
101305.6624
101310.04
101313.4445
101314.5312
101312.6334
101310.1055
101307.1855
101302.8848
101298.6913
101296.6369
101295.0851
101294.2668
101293.4491
101293.0265
101292.9234
101294.0873
101295.757
101297.5918
101299.0401
101300.3916
101301.9115
101303.4512
101304.6906
101305.0167
101304.3503
101303.4825
101302.5081
101301.0068
101289.9947
101268.1489
101257.5559
101252.2946
101252.9486
101254.8162
101256.9963
101261.6665
101272.7239
101285.1239
101296.7844
101305.0827
101311.7752
101318.8567
101326.7126
101333.0482
101335.305
101332.0918
101323.1126
101308.9656
101290.0771
101268.5825
101258.1985
101253.1746
101253.9901
101255.869
101258.0302
101262.3982
101272.8346
101284.543
101295.9272
101304.298
101310.9939
101317.8819
101325.53
101331.849
101334.1962
101331.075
101322.2616
101308.5434
101290.2156
101269.3427
101259.385
101254.7784
101255.8626
101257.7751
101259.8708
101263.6725
101272.913
101283.4412
101294.4535
101302.9634
101309.7115
101316.2903
101323.5488
101329.7712
101332.2508
101329.2827
101320.7678
101307.8098
101290.3527
101270.1913
101260.843
101256.7693
101258.2353
101260.2112
101262.1569
101265.1284
101272.7425
101281.9416
101292.59
101301.4134
101308.3303
101314.5826
101321.3203
101327.3296
101329.8983
101327.0959
101318.9369
101306.9379
101290.4185
101270.8823
101262.1825
101258.6618
101260.6382
101262.7156
101264.4381
101266.3444
101272.182
101280.1565
101290.6621
101299.8911
101307.2169
101313.1666
101319.3956
101325.0528
101327.6382
101324.9325
101317.1263
101306.0821
101290.3399
101271.2207
101263.0723
101260.0421
101262.5084
101264.7576
101266.126
101266.9559
101271.1667
101278.2156
101288.7948
101298.5803
101306.4928
101312.3172
101318.103
101323.355
101325.8244
101323.1172
101315.5682
101305.3785
101290.1266
101271.155
101263.3108
101260.5787
101263.4533
101265.8154
101266.7775
101266.7186
101269.7862
101276.3414
101287.3125
101297.6435
101306.2836
101312.1746
101317.7422
101322.5459
101324.7075
101321.8566
101314.4834
101304.9234
101289.8251
101270.7923
101262.8506
101260.0938
101263.0482
101265.3749
101265.988
101265.5372
101268.1583
101274.891
101286.2389
101297.2859
101306.5477
101312.7447
101318.2888
101322.7155
101324.3619
101321.2968
101313.9684
101304.7239
101289.5386
101270.3735
101261.95
101258.6597
101261.2206
101263.2631
101263.7031
101263.4981
101266.517
101273.9597
101285.8394
101297.5052
101307.2701
101313.9586
101319.647
101323.7517
101324.8243
101321.4186
101313.9985
101304.7894
101289.3887
101270.1472
101260.9073
101256.7089
101258.1326
101259.6195
101260.2029
101260.9069
101265.0499
101273.5988
101286.0814
101298.259
101308.3844
101315.6872
101321.613
101325.5089
101325.9628
101322.1509
101314.5131
101305.0874
101289.4475
101270.3607
101260.1151
101254.6335
101254.3155
101255.0427
101256.0235
101258.1776
101264.0087
101273.8815
101287.0186
101299.4769
101309.9322
101317.8058
101324.0402
101327.7787
101327.6385
101323.3658
101315.4105
101305.5615
101289.7221
101271.0403
101259.8137
101252.8635
101250.6108
101250.4088
101251.9712
101255.8406
101263.5532
101274.8078
101288.3489
101300.9625
101311.6741
101320.1348
101326.697
101330.2519
101329.5214
101324.7948
101316.5264
101306.1499
101290.1621
101272.1386
101260.1471
101251.8598
101247.8859
101246.7391
101248.9216
101254.433
101263.8998
101276.2357
101289.9307
101302.5077
101313.4101
101322.367
101329.2525
101332.5231
101331.1714
101326.0246
101317.5779
101306.7601
101290.6984
101273.5988
101261.2221
101252.0741
101246.7775
101244.9642
101247.4895
101254.3463
101265.0514
101278.0143
101291.3849
101303.6763
101314.6625
101324.036
101331.0397
101334.026
101332.0085
101326.6734
101318.2168
101307.2473
101291.3162
101275.4202
101263.3425
101253.9239
101248.2133
101245.7777
101248.4608
101255.9621
101267.2666
101280.0911
101292.7247
101304.1928
101314.91
101324.317
101331.2794
101333.7928
101331.3499
101326.0294
101318.0726
101307.3487
101292.1064
101277.8494
101266.7341
101257.8876
101252.3084
101249.7474
101252.2403
101259.5674
101270.4868
101282.4988
101293.7627
101303.9925
101313.9034
101322.855
101329.2947
101331.3404
101328.6842
101323.8005
101316.7672
101306.9911
101293.1995
101281.1327
101271.6626
101264.0337
101259.1638
101256.8231
101258.8815
101265.2815
101275.018
101285.3844
101294.7854
101303.3048
101311.8049
101319.6798
101325.2154
101326.7013
101324.1585
101320.071
101314.3521
101306.1139
101294.7076
101285.4526
101278.16
101272.3342
101268.5623
101266.7493
101268.1811
101273.1477
101280.7852
101288.8573
101295.9281
101302.3391
101308.87
101315.0778
101319.3247
101320.272
101318.1776
101315.1406
101310.9658
101304.7629
101296.6155
101290.6669
101286.1219
101282.347
101280.0654
101278.7718
101279.7036
101282.7541
101287.742
101292.8908
101297.3647
101301.3588
101305.4679
101309.4802
101312.1385
101312.6524
101311.2491
101309.4206
101306.8874
101303.0452
101298.7884
101296.8025
101295.1846
101294.0717
101293.1891
101292.8887
101293.0411
101294.1611
101295.7701
101297.5589
101299.0433
101300.3828
101301.8731
101303.2684
101304.2634
101304.378
101303.9199
101303.2586
101302.4264
101301.0712
101292.7224
101276.0057
101267.6985
101261.1709
101258.0031
101258.3836
101262.8478
101268.4548
101278.2304
101289.4519
101301.1148
101308.4121
101313.7283
101319.7903
101327.1027
101332.6283
101334.3623
101331.5046
101322.8795
101309.4059
101292.8977
101276.4733
101268.1939
101261.7851
101259.0343
101259.4056
101263.6483
101269.3971
101279.0901
101289.6308
101300.6577
101307.7096
101313.0589
101319.1137
101326.3411
101331.9197
101333.7011
101330.815
101322.2542
101309.0233
101293.2164
101277.3023
101269.1024
101262.976
101260.8274
101261.1415
101265.0008
101270.9282
101280.3438
101289.7857
101299.7546
101306.56
101312.0462
101318.0106
101324.9815
101330.5483
101332.3687
101329.4607
101321.0653
101308.3226
101293.6036
101278.3418
101270.3584
101264.6616
101263.0983
101263.2045
101266.6142
101272.5603
101281.4129
101289.6152
101298.5809
101305.3786
101311.1152
101316.915
101323.3333
101328.7131
101330.4412
101327.5376
101319.405
101307.4502
101293.9722
101279.3374
101271.779
101266.5593
101265.5669
101265.3247
101268.1951
101273.7502
101281.8176
101288.8315
101297.2327
101304.3135
101310.586
101316.0993
101321.8436
101326.7856
101328.2456
101325.272
101317.4938
101306.5084
101294.1594
101280.0175
101272.9888
101268.2757
101267.8269
101267.1624
101269.2827
101274.1431
101281.2798
101287.524
101295.9772
101303.6608
101310.5743
101315.8172
101320.8584
101325.2264
101326.2017
101323.0709
101315.6228
101305.6412
101294.0911
101280.1852
101273.6521
101269.3765
101269.3686
101268.2495
101269.5464
101273.489
101279.8523
101285.9246
101294.9683
101303.4907
101311.0696
101316.074
101320.5675
101324.3098
101324.7045
101321.2995
101314.0668
101304.9371
101293.7683
101279.8411
101273.5205
101269.4649
101269.6189
101268.1191
101268.7083
101271.9549
101277.8442
101284.384
101294.2411
101303.7086
101311.8504
101316.8756
101321.0501
101324.2658
101324.0391
101320.2721
101313.0501
101304.4798
101293.2581
101279.116
101272.5952
101268.3817
101268.2812
101266.4447
101266.7921
101269.7896
101275.699
101282.9112
101293.7024
101303.9871
101312.7088
101318.1381
101322.2414
101325.1034
101324.3173
101320.1137
101312.6974
101304.3076
101292.8286
101278.3437
101271.1092
101266.2585
101265.3721
101263.3187
101264.0018
101267.4092
101273.7971
101281.7314
101293.1356
101304.2163
101313.5491
101319.6492
101323.9767
101326.6483
101325.4392
101320.7822
101313.0225
101304.4358
101292.5667
101277.8204
101269.4498
101263.4795
101261.3854
101259.1897
101260.7014
101265.1925
101272.424
101281.024
101292.6995
101304.3396
101314.3693
101321.2493
101326.0188
101328.5888
101327.1057
101322.0789
101313.9193
101304.8096
101292.5205
101277.6429
101267.9695
101260.6001
101257.128
101254.8599
101257.4537
101263.4571
101271.6634
101280.8202
101292.4813
101304.5176
101315.1306
101322.8195
101328.0479
101330.5311
101328.8135
101323.6102
101315.1551
101305.3854
101292.6274
101277.8417
101267.0089
101258.3053
101253.5295
101251.2564
101255.0306
101262.431
101271.5034
101281.0432
101292.614
101304.7958
101315.8623
101324.1239
101329.6791
101331.9273
101330.0638
101324.8811
101316.3806
101306.0144
101292.8234
101278.3883
101266.7811
101257.1175
101251.2219
101249.2172
101253.9089
101262.2642
101271.8368
101281.6752
101293.0538
101305.137
101316.3279
101325.0097
101330.4943
101332.3821
101330.3819
101325.4936
101317.1362
101306.6101
101293.1053
101279.3977
101267.7422
101257.574
101251.2312
101249.4803
101254.6813
101263.1923
101272.8011
101282.7416
101293.8435
101305.4166
101316.191
101324.6444
101329.8487
101331.2313
101329.2782
101324.8059
101317.0596
101306.872
101293.5955
101281.0577
101270.1407
101260.3116
101253.9437
101252.6033
101257.6777
101265.4705
101274.5354
101284.3127
101294.9118
101305.4796
101315.1123
101322.9047
101327.4069
101328.2953
101326.5323
101322.6874
101315.8786
101306.6923
101294.4383
101283.6984
101274.2512
101265.5047
101259.6652
101258.7559
101263.2459
101269.6854
101277.6109
101286.5368
101296.1955
101305.2011
101313.1762
101319.7249
101323.3503
101323.7908
101322.364
101319.2806
101313.6627
101305.9728
101295.6781
101287.4392
101280.1318
101273.248
101268.3722
101268.0287
101271.3582
101276.1264
101282.2569
101289.6457
101297.4575
101304.427
101310.3323
101315.2706
101317.8959
101318.0232
101316.9835
101314.7578
101310.5227
101304.7482
101297.2702
101292.0065
101287.4633
101282.8322
101279.6459
101279.4904
101281.6267
101284.4149
101288.4403
101293.4286
101298.6622
101303.0943
101306.6689
101309.7379
101311.3141
101311.2966
101310.6597
101309.3319
101306.669
101303.0931
101299.0443
101297.2932
101295.67
101294.1455
101292.9015
101293.0573
101293.6091
101294.5621
101295.8692
101297.7729
101299.6207
101301.1341
101302.4211
101303.4675
101304.0754
101304.0331
101303.8771
101303.3484
101302.3883
101301.137
101296.1643
101284.5337
101278.9717
101272.5544
101266.8478
101265.6487
101274.2508
101283.6196
101289.4496
101294.7752
101304.8443
101312.719
101317.6981
101321.7692
101328.2983
101334.6699
101337.3979
101334.4719
101323.9774
101309.4448
101296.3313
101284.9876
101279.4294
101272.8857
101267.9948
101267.309
101274.5523
101283.6248
101290.5916
101296.2453
101304.8981
101311.5885
101316.574
101321.1678
101327.7593
101333.9759
101336.4689
101333.5233
101323.3768
101309.1351
101296.594
101285.7029
101280.0316
101273.4828
101270.078
101269.7205
101275.062
101283.7688
101292.4605
101298.4137
101304.9146
101309.6866
101314.7665
101320.0058
101326.6102
101332.4408
101334.5505
101331.6154
101322.1003
101308.5631
101296.8794
101286.4985
101280.6307
101274.3276
101272.7941
101272.2259
101275.6142
101284.0016
101294.1408
101300.1426
101304.3007
101307.4353
101312.4159
101318.4019
101324.7981
101330.0265
101331.6442
101328.8181
101320.1599
101307.7456
101297.1472
101287.2119
101281.3988
101275.5488
101275.659
101274.5604
101276.1109
101284.0057
101295.0886
101300.6666
101303.1642
101305.236
101310.6112
101316.8268
101322.7292
101327.0585
101328.1269
101325.4402
101317.797
101306.6931
101297.3141
101287.7009
101282.3566
101276.9454
101278.1727
101276.3761
101276.2287
101283.3233
101294.5725
101299.9341
101301.4743
101303.4299
101309.3087
101315.608
101320.7694
101324.0692
101324.4794
101321.9225
101315.2427
101305.5904
101297.3251
101287.8738
101283.1971
101278.0616
101279.8878
101277.3366
101275.7479
101281.7479
101292.9047
101298.2681
101299.9178
101302.3823
101309.0243
101315.007
101319.3908
101321.7243
101321.4802
101318.8669
101312.886
101304.5884
101297.1042
101287.7181
101283.501
101278.3473
101280.1791
101277.0674
101274.4721
101279.5184
101290.144
101296.3564
101298.9119
101302.2892
101309.437
101315.1799
101318.8348
101320.4993
101319.6798
101316.8864
101311.1808
101303.8039
101296.6947
101287.1931
101282.8955
101277.4829
101278.8604
101275.3573
101272.5488
101277.0928
101287.3324
101294.1373
101298.1553
101302.8738
101310.4617
101316.0777
101319.4038
101320.669
101319.4287
101316.2767
101310.3659
101303.3372
101296.2743
101286.4629
101281.3193
101275.34
101275.9076
101272.2776
101270.0496
101274.9557
101284.9351
101291.9556
101297.351
101303.4978
101311.7524
101317.6614
101320.9788
101322.1834
101320.6744
101317.0204
101310.5071
101303.2452
101295.9225
101285.5995
101278.994
101272.236
101271.8633
101268.1597
101267.2763
101273.2978
101283.3551
101290.5103
101296.5247
101303.9152
101313.1595
101319.7383
101323.3059
101324.6302
101322.9825
101318.7773
101311.4774
101303.4983
101295.6553
101284.7244
101276.4238
101268.8771
101267.3653
101263.6618
101264.5211
101272.1893
101282.4756
101289.5776
101295.779
101304.2427
101314.5731
101322.0621
101325.9565
101327.3219
101325.6215
101320.9535
101312.9434
101303.9866
101295.4563
101284.0167
101274.2628
101265.9011
101263.2716
101259.7036
101262.5507
101271.6785
101282.2019
101288.9443
101295.3939
101304.7582
101316.0557
101324.2276
101328.2989
101329.5503
101327.8645
101322.9279
101314.4655
101304.5871
101295.2993
101283.7221
101273.1043
101263.9932
101260.1175
101257.1609
101261.9061
101271.9138
101282.0987
101288.5304
101295.4972
101305.8027
101317.5756
101326.0439
101329.7457
101330.7288
101329.0886
101324.1841
101315.4343
101305.1063
101295.2786
101284.0538
101273.3752
101263.6877
101258.8119
101256.569
101262.9428
101272.8921
101282.0093
101288.2638
101296.3734
101307.3704
101318.7966
101326.4284
101329.6607
101330.1506
101328.8366
101324.1521
101315.5417
101305.3807
101295.5504
101285.243
101275.2482
101265.5486
101259.5877
101258.3615
101265.7599
101274.5668
101281.9036
101288.4077
101297.7548
101309.0165
101318.9542
101325.1227
101327.535
101327.7297
101326.8793
101322.6935
101314.4872
101305.299
101296.1851
101287.2502
101278.7495
101269.7572
101263.0766
101262.9192
101270.557
101277.5455
101282.8083
101289.3069
101299.3146
101309.8676
101317.666
101322.0001
101323.619
101323.7392
101323.407
101319.8946
101312.4482
101304.8003
101297.1472
101290.3716
101283.7693
101276.6448
101269.9159
101270.9157
101277.3437
101282.3391
101285.4611
101291.2622
101300.4626
101309.1992
101314.6486
101317.207
101318.2285
101318.3999
101318.4657
101315.7967
101309.6252
101303.8852
101298.3494
101294.0097
101289.8391
101285.1485
101279.9888
101281.1553
101285.666
101288.4767
101290.082
101294.2155
101300.9093
101306.7766
101309.887
101311.0797
101311.5712
101311.8205
101311.9941
101310.3592
101306.1232
101302.6028
101299.4931
101298.0172
101296.6143
101294.9137
101292.8947
101293.5803
101295.0263
101295.7998
101296.2656
101298.017
101300.5616
101302.6904
101303.7626
101304.0224
101304.2605
101304.399
101304.6068
101303.9125
101302.2748
101301.0203
101300.2361
101291.9435
101287.8935
101283.7934
101283.4027
101277.7645
101287.0779
101303.5522
101310.5093
101305.0676
101307.8683
101315.6586
101322.6838
101325.5474
101329.9814
101336.6393
101340.6087
101337.6277
101324.1219
101307.6017
101300.243
101292.2644
101289.0253
101284.1056
101283.1577
101280.5017
101288.0879
101301.992
101309.8214
101306.9848
101309.1211
101314.8574
101321.4426
101324.9021
101329.4908
101335.556
101338.8607
101335.9696
101323.3235
101307.561
101300.0832
101292.4843
101290.1292
101284.1761
101284.2133
101284.5007
101289.3301
101299.4731
101308.7384
101309.852
101310.3569
101312.6175
101318.4439
101323.0989
101328.1999
101333.3086
101335.5452
101332.7975
101321.8035
101307.3857
101299.7221
101292.3458
101290.854
101284.0164
101286.6164
101288.7951
101289.4605
101295.9715
101307.6424
101312.5715
101310.7905
101309.002
101314.0133
101320.1213
101325.8896
101330.0247
101331.0617
101328.5393
101319.5522
101307.0174
101299.2796
101291.8907
101291.3909
101284.0748
101289.354
101292.7572
101289.2611
101292.995
101306.4719
101314.1747
101309.8615
101303.8407
101308.3905
101316.0391
101322.6817
101325.8463
101325.8947
101323.6207
101316.7635
101306.355
101299.0032
101291.4513
101291.9618
101284.6971
101291.5037
101295.5025
101288.6959
101290.6205
101305.1358
101314.6145
101308.4756
101299.5465
101303.1547
101312.1645
101319.1956
101321.5142
101320.6244
101318.6298
101313.7328
101305.4628
101298.8802
101291.4659
101292.8185
101285.5605
101292.4295
101296.4847
101287.3838
101288.2061
101303.2179
101313.1488
101307.109
101296.6744
101299.7883
101309.192
101316.1343
101317.6133
101316.0804
101314.2394
101310.9346
101304.4771
101298.8701
101291.8891
101293.544
101286.0581
101291.9091
101295.6129
101285.4648
101285.7401
101300.8967
101311.086
101306.4383
101296.5803
101299.2415
101307.9789
101314.2192
101315.0225
101313.0179
101311.2144
101308.7808
101303.593
101298.8157
101292.3804
101293.4673
101285.5406
101289.9743
101293.0915
101282.9436
101283.0379
101297.813
101307.7607
101304.5834
101297.3189
101300.3678
101308.4445
101313.8599
101314.2232
101311.9362
101309.9529
101307.6197
101302.9264
101298.7363
101292.4044
101292.0323
101283.5061
101287.1291
101289.4029
101279.8814
101280.5701
101294.5091
101304.4411
101303.2433
101297.8603
101302.3611
101310.4265
101315.1696
101315.3414
101312.833
101310.4477
101307.4815
101302.5564
101298.4766
101291.695
101289.2016
101280.1797
101283.5179
101284.7266
101276.6625
101278.6202
101292.1571
101301.7492
101301.5596
101298.5033
101304.8841
101313.5542
101317.9385
101318.0246
101315.3608
101312.3517
101308.2239
101302.4623
101298.1012
101290.3605
101285.6168
101276.3426
101279.5906
101279.6237
101273.3776
101277.4087
101290.9617
101299.9232
101299.9564
101299.5985
101308.1045
101317.4188
101321.5177
101321.5161
101318.6998
101315.031
101309.4795
101302.5974
101297.626
101289.0124
101282.3112
101272.9745
101276.2081
101274.8264
101270.9041
101277.265
101291.1576
101298.8368
101299.1811
101301.621
101311.9648
101321.3693
101325.0223
101324.7549
101321.9935
101317.6591
101310.7931
101302.7697
101297.2762
101288.1849
101280.2911
101270.9293
101273.5046
101271.1324
101270.4247
101278.3853
101291.5908
101297.9078
101299.3947
101304.8863
101315.9855
101324.8403
101327.4332
101326.8994
101324.4378
101319.6448
101311.6876
101302.8321
101297.2448
101288.2431
101279.9466
101270.6499
101271.4943
101268.7368
101270.9345
101280.1581
101291.5662
101296.652
101300.4644
101308.9694
101319.8386
101326.7845
101328.0038
101327.2974
101325.5782
101320.6352
101311.6983
101302.5851
101297.6483
101289.3001
101280.8764
101272.3928
101270.6532
101267.7647
101273.1029
101282.7213
101291.1771
101294.9478
101301.2975
101312.5225
101322.1681
101326.5526
101326.3934
101325.8241
101325.0696
101320.4049
101310.7495
101302.1853
101298.3889
101291.0679
101283.0554
101275.8308
101271.6427
101268.6781
101277.1606
101286.1882
101291.0548
101293.4255
101301.8144
101314.1752
101322.2203
101323.8942
101322.8838
101322.7467
101322.9242
101318.7951
101309.1038
101301.7215
101299.1599
101293.52
101286.7244
101281.7661
101275.3405
101273.6766
101282.8309
101290.616
101291.8174
101293.1842
101301.7951
101313.1709
101319.291
101319.0978
101317.9144
101318.295
101319.0042
101315.6795
101306.9566
101301.2245
101299.839
101296.1685
101291.4573
101288.7861
101282.6518
101281.9229
101289.5009
101294.9209
101294.2349
101294.6696
101301.3824
101309.5346
101313.3672
101312.4483
101311.504
101312.0967
101312.8131
101310.6862
101304.4013
101300.7226
101300.093
101298.7398
101297.0873
101296.1576
101293.3454
101293.5764
101296.4312
101298.0103
101297.4136
101297.8088
101300.6299
101303.8576
101305.2147
101304.6564
101304.2675
101304.7034
101305.0256
101304.2601
101301.6505
101300.284
101301.6456
101295.1141
101293.0103
101288.795
101309.0941
101300.8743
101288.1129
101309.3256
101334.6567
101328.5977
101312.2361
101309.4524
101320.1179
101328.9428
101332.1774
101335.1719
101337.4231
101335.116
101321.4041
101304.4215
101301.6709
101295.5321
101295.2507
101290.702
101301.075
101298.9635
101294.5853
101308.1961
101325.9633
101325.9431
101315.6042
101312.04
101319.4358
101327.2396
101331.3567
101334.154
101335.5487
101332.9644
101320.386
101304.7304
101301.1937
101295.2326
101298.6482
101292.3325
101294.8293
101299.3373
101303.4168
101305.7344
101315.108
101321.9479
101320.4047
101315.269
101317.5711
101323.6231
101329.2794
101332.0411
101332.073
101329.0265
101318.6425
101305.14
101300.2857
101293.8667
101301.6855
101293.6772
101292.5346
101302.8892
101310.27
101304.0318
101305.3317
101317.5542
101323.8038
101317.2072
101313.4876
101317.97
101325.5001
101328.8785
101327.4005
101323.9204
101316.3336
101305.2766
101299.2855
101291.8567
101303.8042
101295.3086
101292.2206
101307.1383
101317.2492
101303.0332
101298.0992
101313.1154
101324.3002
101315.849
101307.9691
101311.2128
101321.1053
101324.9301
101322.1613
101318.2463
101313.6548
101305.0608
101298.6946
101290.1789
101304.8988
101297.2532
101291.0264
101308.2679
101321.3316
101301.6407
101292.2801
101309.0614
101322.1246
101312.2611
101300.818
101304.3332
101316.1824
101320.6192
101316.7212
101312.5971
101310.7147
101304.5499
101298.7268
101289.9537
101305.668
101299.1577
101288.3503
101306.0899
101322.1611
101299.9344
101287.8125
101305.4226
101319.7501
101308.4532
101295.4083
101298.8099
101312.2611
101316.5758
101311.8707
101307.6086
101307.9089
101303.7726
101299.2093
101291.1122
101306.462
101300.2749
101284.7021
101301.9817
101320.5848
101298.433
101284.0099
101307.4179
101321.2638
101307.1879
101292.1186
101295.945
101309.6872
101313.5201
101308.1424
101303.9238
101305.6026
101302.869
101299.7401
101292.7206
101306.6025
101299.4554
101281.7746
101298.0077
101317.5036
101296.0298
101281.2186
101305.3153
101318.7863
101306.4346
101291.6208
101296.0677
101309.0784
101311.9646
101306.1201
101301.9341
101304.1349
101302.063
101299.8228
101293.5293
101305.1724
101296.6454
101280.2454
101294.9948
101312.4328
101292.3959
101279.458
101298.1205
101316.4677
101304.1519
101292.8499
101298.4116
101310.224
101312.0361
101305.91
101301.6957
101303.6136
101301.4581
101299.3333
101292.9586
101302.1504
101291.9971
101279.7633
101292.6878
101305.5051
101287.616
101279.9699
101298.6955
101311.4158
101303.3179
101295.8833
101302.4978
101312.8719
101313.6457
101307.4922
101303.0601
101303.9456
101301.0682
101298.4921
101291.479
101298.0678
101286.4301
101279.8262
101290.59
101297.0802
101281.6452
101281.218
101300.6573
101310.7787
101304.4325
101299.6947
101307.5076
101316.4282
101316.2704
101310.2418
101305.46
101304.7591
101300.8271
101297.7024
101290.1277
101293.9155
101281.354
101280.2721
101288.387
101288.2377
101275.4301
101282.7955
101303.6822
101311.6059
101305.2862
101303.4685
101312.6758
101320.1924
101319.0632
101313.3668
101308.2096
101305.5478
101300.5708
101297.4455
101289.7273
101290.9561
101278.2232
101280.5385
101286.4172
101281.8239
101272.0531
101286.1529
101306.538
101310.611
101305.0871
101307.5107
101317.9117
101322.9903
101321.018
101315.9149
101310.6356
101305.917
101300.1217
101297.985
101290.5136
101289.277
101277.2223
101281.4002
101284.7307
101276.5588
101273.4987
101290.5775
101306.7389
101308.3974
101306.4541
101312.7725
101321.6783
101323.7625
101321.3755
101317.4692
101312.4657
101305.8091
101299.4836
101299.0265
101292.2822
101287.5711
101277.6837
101283.9623
101282.8768
101274.1094
101280.2719
101296.1556
101304.268
101304.6128
101308.417
101317.8327
101323.3628
101322.1645
101319.954
101317.818
101313.5825
101305.3621
101298.7413
101300.3156
101294.2927
101285.8165
101279.7416
101286.4027
101279.4631
101275.7861
101288.5973
101300.3563
101299.8244
101300.3793
101309.8279
101320.2778
101322.2957
101318.8775
101317.2241
101316.9654
101313.7846
101304.6429
101298.2145
101301.1334
101296.4563
101285.7001
101283.483
101288.492
101278.0076
101280.8351
101295.6592
101302.4243
101296.522
101297.2685
101309.2965
101319.2088
101318.6652
101314.4758
101313.6955
101314.6008
101312.4864
101303.7228
101298.0744
101301.2452
101298.2421
101288.8182
101289.6231
101291.6267
101282.248
101287.9183
101300.1696
101302.7101
101295.7347
101296.4835
101306.6633
101314.0102
101312.5037
101309.093
101309.0403
101310.0758
101308.9516
101302.4311
101298.4009
101300.6143
101299.5043
101295.8202
101296.3702
101295.9302
101292.9807
101295.9157
101300.0397
101300.141
101297.2956
101298.354
101302.7973
101305.5978
101304.8248
101303.452
101303.5822
101303.9122
101303.6453
101301.0131
101299.3671
101301.2671
101290.8293
101302.9132
101287.625
101324.2423
101337.019
101292.9034
101287.9631
101330.9913
101350.925
101334.3422
101315.4852
101319.2424
101331.204
101336.8912
101335.6649
101331.2632
101326.3749
101318.1788
101303.3656
101301.932
101291.8962
101302.7708
101294.2094
101308.4337
101320.808
101303.0928
101298.526
101323.8048
101341.6673
101332.1249
101317.2063
101319.8708
101329.3984
101335.3745
101335.0507
101330.1171
101324.4561
101316.7911
101303.7488
101302.1342
101292.626
101305.8306
101301.9998
101294.8469
101307.3786
101318.6205
101314.1689
101314.1868