/*--------------------------------*- C++ -*----------------------------------*\
| =========                 |                                                 |
| \\      /  F ield         | OpenFOAM: The Open Source CFD Toolbox           |
|  \\    /   O peration     | Version:  5.x                                   |
|   \\  /    A nd           | Web:      www.OpenFOAM.org                      |
|    \\/     M anipulation  |                                                 |
\*---------------------------------------------------------------------------*/
FoamFile
{
    version     2.0;
    format      ascii;
    class       surfaceScalarField;
    location    "3.6";
    object      phi;
}
// * * * * * * * * * * * * * * * * * * * * * * * * * * * * * * * * * * * * * //

dimensions      [1 0 -1 0 0 0 0];

internalField   nonuniform List<scalar> 
91025
(
0.4632383789
0.001467268089
-0.01072108543
0.9616001293
-0.06140487622
0.07847403889
1.320640532
-0.1473948285
-0.1024960928
1.167534505
-0.2762480567
-0.150204361
0.6940978728
-0.3227856607
-0.3336014566
0.07305268245
-0.3641810653
-0.27931466
-0.3960823792
-0.3031548556
-0.2136119151
-0.7203788812
-0.2733661942
-0.03377995182
-0.9240450787
-0.1973305795
0.05273713776
-1.090597197
-0.1520587765
0.1592752479
-1.215695032
-0.06340671995
0.2173687671
-1.227632244
-0.001852802319
0.3073617297
-1.031672623
0.08181980699
0.3600485936
-0.6700010941
0.1239683172
0.4042163394
-0.2149545152
0.184292182
0.4187503266
0.2589109286
0.2032433244
0.4145902079
0.6032735901
0.2065521893
0.3740041385
0.7665092633
0.1469149274
0.2823733996
0.7514394995
0.09271729412
0.1674427541
0.01426697908
0.03617467968
0.4386227777
0.003210901539
-0.01307541277
0.9159839512
-0.1227525736
0.07616811001
1.271314127
-0.2796832944
-0.1004514215
1.135953177
-0.5284559429
-0.1420983266
0.6870552619
-0.6212313389
-0.3194988101
0.08906859288
-0.7122549735
-0.2632631197
-0.3700123139
-0.6061677465
-0.2027723416
-0.6894609902
-0.5543990506
-0.02834435357
-0.8913085517
-0.4024825901
0.06306899991
-1.055342108
-0.3022939523
0.1666241559
-1.183393685
-0.1168812182
0.2245949046
-1.197232047
0.01677247989
0.3065643306
-1.00567633
0.1907978717
0.3636224929
-0.6485789734
0.279950371
0.4071834653
-0.2024792558
0.3954955315
0.4233200805
0.2538872727
0.426642047
0.4131186136
0.5814289481
0.424615064
0.3705172302
0.735564759
0.3025045338
0.2787042798
0.7203206928
0.1906346598
0.1674531718
0.03319389621
0.03771622691
0.3885591779
0.005194847276
-0.01713829365
0.8282942507
-0.1854483084
0.07004066635
1.173877664
-0.386224159
-0.09824420212
1.069023333
-0.7408829677
-0.129030226
0.6632103227
-0.8729693459
-0.2954169085
0.1086356187
-1.02880951
-0.2348138774
-0.3290238678
-0.8953614265
-0.188635457
-0.6355294957
-0.8388545259
-0.01665742574
-0.8268475063
-0.6049675116
0.06851707761
-0.9848348096
-0.4468998514
0.180111939
-1.109876449
-0.1467381645
0.2157484058
-1.128421534
0.06406208113
0.302216101
-0.9449914589
0.3440526495
0.3519205324
-0.6008053125
0.478673937
0.4078125459
-0.1757823795
0.6511888076
0.4198590721
0.2466913149
0.6765077807
0.4067149421
0.5397987708
0.6617827323
0.3582070864
0.6775704903
0.4710124472
0.2701439878
0.6603918757
0.2999943955
0.1649666715
0.05826033573
0.04013196334
0.3223937665
0.006107923764
-0.0240119203
0.7137752119
-0.2548156367
0.06197075865
1.045854217
-0.4719190291
-0.0975014971
0.9759631633
-0.9137553292
-0.1127719519
0.6286301548
-1.07473757
-0.2624317598
0.1342865734
-1.302607939
-0.200106653
-0.2660555695
-1.164891306
-0.1610529853
-0.544816601
-1.111215924
-0.001828469059
-0.7180950207
-0.8036733482
0.09390675549
-0.8629103065
-0.5774529331
0.190876501
-0.9955850013
-0.1647231547
0.2241736388
-1.022382083
0.1319144087
0.2859792159
-0.8618392164
0.5149529185
0.3452560819
-0.5427077016
0.7039010806
0.395787901
-0.1532338321
0.9257720982
0.4130743991
0.2183045238
0.9407662438
0.388212775
0.4653497161
0.9027297494
0.3387141843
0.5787152104
0.6469991903
0.2532032957
0.5605918477
0.4133549583
0.1593636588
0.09071283733
0.04103364826
0.2289285686
0.005105409767
-0.03101785834
0.5710505727
-0.3359194848
0.05108286467
0.8833695445
-0.540590307
-0.09830073464
0.8484827909
-1.057645416
-0.09732309828
0.5617294848
-1.230674329
-0.2327510822
0.1398171171
-1.53387861
-0.1629252252
-0.2051033973
-1.390346395
-0.1397543463
-0.4368701313
-1.350510893
0.02156073224
-0.5741787452
-0.9597403263
0.09678862152
-0.6989157596
-0.6843411772
0.1993808148
-0.8201445131
-0.1580191059
0.1878221778
-0.8654099251
0.2015668219
0.2586024518
-0.7330032648
0.6923863781
0.2999833584
-0.4533437792
0.9245624259
0.3689698902
-0.1190219822
1.200464477
0.3776744159
0.1856867073
1.192466531
0.3547584495
0.3705065341
1.133151082
0.3018495649
0.4528327646
0.8159018415
0.2269975154
0.4283367693
0.5276496324
0.1456968348
0.1249289744
0.04009840667
0.1237840246
0.002005171233
-0.03901060533
0.4195204694
-0.4283120703
0.04225697302
0.7128657881
-0.6049249965
-0.09842395203
0.7096025389
-1.184942061
-0.08138620489
0.4881774232
-1.358167713
-0.2001312162
0.1470249975
-1.721885751
-0.1265310408
-0.1254609898
-1.571355897
-0.1030386374
-0.2900996748
-1.536463727
0.04480182496
-0.3851582007
-1.077374673
0.1267200855
-0.4815670225
-0.7576697524
0.1976182549
-0.6071907482
-0.1545556254
0.1892645519
-0.6747735327
0.2517846085
0.2224663671
-0.5885956042
0.8203031337
0.2721165089
-0.3621598664
1.099703756
0.3241473438
-0.09945042467
1.413870699
0.3374527583
0.1245256581
1.394600242
0.3043804626
0.2402531651
1.313949679
0.2575735209
0.2831602668
0.9581020162
0.1915903598
0.2522509068
0.6239235322
0.1275491337
0.1584589068
0.03552261907
-0.01116709734
-0.0005303215383
-0.0443302997
0.2484658257
-0.5247979861
0.0347819176
0.517751477
-0.6640978689
-0.09755116251
0.5447693934
-1.303390226
-0.06653486423
0.3868807515
-1.454601846
-0.1735906851
0.1345730904
-1.86897882
-0.09112922193
-0.05199445186
-1.68281318
-0.07902898336
-0.1358575332
-1.656933194
0.06933513305
-0.1752408803
-1.115045399
0.1212548671
-0.23912234
-0.7985052747
0.1905315098
-0.3491710684
-0.1311276249
0.1397865692
-0.4392639713
0.2681230603
0.1870041053
-0.3989127038
0.8987023202
0.2105337646
-0.2379702787
1.196378282
0.2731666387
-0.06588130704
1.547246237
0.274271228
0.06652688049
1.512316608
0.2479209352
0.1021164303
1.426045707
0.2023768402
0.09712781622
1.048999929
0.1499584674
0.04957224889
0.695157271
0.1022282514
0.1834114484
0.02904720803
-0.1489918613
0.00206672736
-0.0480549751
0.07836432043
-0.6098830072
0.03314877192
0.3267111617
-0.7135085758
-0.09168064824
0.3836249344
-1.403125622
-0.04866291821
0.2952393787
-1.524191907
-0.1405223066
0.1385215275
-1.965646269
-0.05586286803
0.05237958417
-1.728257557
-0.03776281886
0.04846506949
-1.692172172
0.09098407103
0.05963944011
-1.100534913
0.1446286479
0.02830277672
-0.7934212772
0.1751243166
-0.08842977437
-0.1196902354
0.1433744943
-0.1952720657
0.2531881744
0.1505220369
-0.210955774
0.8947358727
0.1846699778
-0.1248942386
1.203053428
0.2199062014
-0.04724123116
1.561163195
0.2246504251
-0.01073547371
1.522884348
0.1906341895
-0.05329792279
1.440443916
0.1556692967
-0.1092673498
1.068636612
0.1098282178
-0.1723805127
0.7234667411
0.07871450442
0.1971727268
0.02038159933
-0.3201571383
0.01371026173
-0.04813501064
-0.1208979196
-0.6672912929
0.03369761585
0.1165257524
-0.7298502396
-0.08331898793
0.2090051763
-1.465909601
-0.02989545279
0.1936049787
-1.536716398
-0.1114865501
0.1415266036
-1.991591601
-0.01995793444
0.1639046828
-1.67998156
-0.01135033468
0.2391222836
-1.637998068
0.1112323126
0.2951308529
-1.009468153
0.1324816019
0.2748575047
-0.7481566768
0.1599577244
0.1733864592
-0.09689603834
0.1059472335
0.0593468932
0.2165102192
0.123766418
-0.001446928644
0.8424125788
0.1378753758
0.00848935141
1.120842181
0.1746016214
-0.01251899099
1.476308938
0.1680598581
-0.07830252242
1.421502542
0.14138288
-0.1955513784
1.360301449
0.1117072895
-0.3021225859
1.006463623
0.07680715399
-0.3963725111
0.7032723042
0.0562888509
0.19255908
0.012104582
-0.4882338083
0.03562477007
-0.04598312923
-0.3137568797
-0.6889990465
0.03858455574
-0.07853692586
-0.704488652
-0.06820874776
0.0535796441
-1.462144952
-0.005642976349
0.1178480351
-1.469255766
-0.07168807001
0.1755417223
-1.927769445
0.01960591363
0.3024573521
-1.546124663
0.03265696697
0.4439458039
-1.499797964
0.1266891906
0.5261773944
-0.8723104803
0.1424529056
0.5123882522
-0.6716266295
0.1406435867
0.4043081295
-0.07529717083
0.1041756525
0.2828884013
0.1660112027
0.09951471826
0.1840643863
0.7413963994
0.1227009703
0.1183979793
0.9677455503
0.1366556302
0.004439085199
1.290792805
0.1335119588
-0.1529545292
1.217230163
0.1030480711
-0.3351005424
1.175706201
0.0832472459
-0.4925161093
0.8643930372
0.05341965682
-0.6175518195
0.6259185672
0.03937556714
0.1705723568
0.0047209689
-0.671282766
0.0673343638
-0.04125853993
-0.5141587724
-0.6696758894
0.04391195605
-0.2797949654
-0.6161971831
-0.05208328129
-0.111661983
-1.368974811
0.0174458925
0.0444170544
-1.295975348
-0.03585333862
0.2166739026
-1.749502595
0.06104297928
0.4402837289
-1.308176245
0.06077079832
0.6313052564
-1.291153687
0.1373123999
0.7317009383
-0.6883856212
0.1253255649
0.7163833684
-0.5780618687
0.1215945097
0.6196504704
-0.05161797869
0.07648980802
0.4937501083
0.0994156702
0.08310818504
0.3643809279
0.6106720967
0.09548030822
0.2266885115
0.7541600486
0.1103591898
0.02812313378
1.031513588
0.1010042393
-0.2053910743
0.9229428926
0.07908426121
-0.4450036134
0.907052816
0.06546361232
-0.6465272802
0.6508554965
0.04146999088
-0.8080448868
0.5016951656
0.02880776427
0.1301340589
-0.0014811599
-0.8262718155
0.1073965886
-0.03388224798
-0.6838243733
-0.6092876426
0.05195193636
-0.4481530577
-0.4633218249
-0.02711829002
-0.2432869357
-1.175208545
0.04595878863
0.002446806248
-1.017205935
0.01097041536
0.2817644433
-1.445990589
0.1025906615
0.5824884022
-0.9826201737
0.09912063814
0.8050199542
-1.027905307
0.1436448898
0.8994796706
-0.4864629464
0.1240824007
0.8818639605
-0.4833067442
0.1018541079
0.7828813359
-0.0403779128
0.07237670775
0.6562282007
0.01186530277
0.06957475585
0.4923904563
0.4406447106
0.08824352011
0.2915954663
0.4867716007
0.09020245114
0.02745939438
0.7030439054
0.08552483056
-0.2599865568
0.557705306
0.06619448214
-0.5339114459
0.5682061878
0.06229792229
-0.7691760523
0.3780912444
0.04025831651
-0.9600997242
0.3350752058
0.02377511932
0.07529572539
-0.005443192548
-0.971147823
0.1584074004
-0.02521841155
-0.8366260734
-0.5033271706
0.06181673675
-0.5996689429
-0.2435126508
-0.001763932342
-0.3563224122
-0.8847874389
0.07529427818
-0.03440650335
-0.6226822834
0.04866373458
0.3368697361
-1.033641073
0.1379985865
0.6976878562
-0.5751362195
0.1183171373
0.9358138971
-0.7222425753
0.1456245568
1.022731261
-0.2722639325
0.1050302823
1.003083046
-0.3972837718
0.08565834584
0.9148576135
-0.04891831245
0.05575731935
0.7877863955
-0.1081173829
0.06337046048
0.5948934843
0.2281487037
0.07381414934
0.3383768522
0.1714097744
0.07758637847
0.02536498932
0.3253791471
0.07291310343
-0.2922557401
0.1446290982
0.06581385068
-0.5830429319
0.1916669933
0.07124923424
-0.8363592011
0.06982388751
0.04728751591
-1.054515716
0.140792297
0.02549484612
0.008011228439
-0.008436288767
-1.058165939
0.2224111684
-0.01270252328
-0.930149688
-0.3494664093
0.07450082172
-0.6902962329
0.04961959394
0.0306470772
-0.417175065
-0.5003884963
0.1066944291
-0.04119005464
-0.1311561503
0.09330692897
0.3899938591
-0.5311161391
0.1679387211
0.7780717276
-0.1089255264
0.146809514
1.016270666
-0.381955368
0.1472060702
1.087350273
-0.05312194152
0.102598146
1.06859914
-0.3176965327
0.07498595627
0.9829466822
-0.07374547765
0.06044714317
0.8589580042
-0.2548525712
0.06362591559
0.6345386269
-0.02545025918
0.07323973484
0.3378943178
-0.1864519307
0.06812115779
-0.0002155000558
-0.08668754384
0.06897778199
-0.3183975127
-0.2893326888
0.07028385211
-0.6011424983
-0.1933745598
0.08426721556
-0.8533508015
-0.2492687268
0.05968889641
-1.083237107
-0.06616896943
0.02856884951
-0.07068054404
-0.009061366599
-1.107907591
0.3056549387
-0.001599874683
-0.9817596976
-0.140480732
0.08761437647
-0.74222867
0.4183303087
0.05733215964
-0.4502763081
-0.015924194
0.1330683852
-0.04135872847
0.45347007
0.1178459845
0.4096062344
0.05274651296
0.1854989948
0.8048382612
0.4189267292
0.1538794479
1.026403469
-2.706439676e-05
0.1459869458
1.09861957
0.1883280727
0.08970558268
1.081035145
-0.2247499429
0.07112512794
1.010368563
-0.101337937
0.05877350128
0.8851252607
-0.4128121073
0.06860306337
0.6429192331
-0.3033182642
0.06840306936
0.3211126206
-0.5615714962
0.06226309263
-0.02478059239
-0.5032444857
0.06551106661
-0.3204234421
-0.7010132914
0.07844127696
-0.577967727
-0.5481133975
0.1011611497
-0.8159359029
-0.5450667296
0.07331265733
-1.045272187
-0.2659532506
0.0353053435
-0.152304406
-0.009737623009
-1.065726846
0.4010265117
0.01079553551
-0.9417155066
0.1024075005
0.09747758786
-0.7164435017
0.8269333425
0.08555301039
-0.4281131151
0.5046286589
0.1494990021
-0.0322400614
1.063199525
0.1394148947
0.4019673778
0.6609331841
0.1904225072
0.7663021702
0.9619569519
0.1658369887
0.96673278
0.403851507
0.143273427
1.031630044
0.4542216716
0.09339384583
1.021538072
-0.1065759088
0.07102910913
0.9584809937
-0.11491822
0.06992913642
0.8359063431
-0.5640497002
0.07373421471
0.590331835
-0.5744260291
0.06939626425
0.2717183616
-0.922580951
0.05476264465
-0.05511680646
-0.8888051466
0.06144189699
-0.3086082702
-1.060143928
0.08277376433
-0.524152396
-0.8486319769
0.109533736
-0.73287596
-0.7962836455
0.08336556621
-0.9416975873
-0.4401314661
0.03740256006
-0.2278376461
-0.007653368107
-0.9612711498
0.4994122266
0.01593800285
-0.8439127016
0.3503770794
0.09628718579
-0.6443597356
1.233420443
0.08960355972
-0.3833854557
1.011202258
0.1459610159
-0.02863155802
1.646657458
0.1297247048
0.3537308485
1.239361592
0.1749158033
0.6675365691
1.482736169
0.1475994783
0.8386625298
0.8069088978
0.1314922351
0.9019422179
0.7356806759
0.08115271034
0.9006756531
0.03589030327
0.06982238413
0.8582308263
-0.1001007094
0.06909705906
0.7410306187
-0.6888868344
0.07701044147
0.5130121659
-0.8127481218
0.06508563505
0.2222573309
-1.235645208
0.05031076733
-0.06401474686
-1.204937413
0.05835827439
-0.2681967868
-1.339515083
0.08441412743
-0.440294056
-1.077159645
0.1128976911
-0.6116304941
-0.9867106793
0.08623813682
-0.7892885588
-0.5734982772
0.04030928974
-0.2894602523
-0.006440973964
-0.751462399
0.5817034641
0.01933671341
-0.6557507218
0.5705096039
0.08196782667
-0.4997199768
1.582999282
0.08616232363
-0.2930351802
1.44489922
0.1243760958
-0.01661841091
2.140404725
0.1168647073
0.2795453003
1.726611804
0.1437347644
0.5141079185
1.923786603
0.1310207636
0.6461709382
1.157591227
0.1102311853
0.6953085496
0.9895972464
0.07586361318
0.7007779037
0.1745315547
0.06087805082
0.6676871764
-0.07262787641
0.06738580739
0.5713380166
-0.7816384865
0.06759646283
0.3849375527
-1.000625223
0.05708202993
0.1544193705
-1.479047222
0.039757542
-0.06509010014
-1.443554267
0.04830722605
-0.2114379477
-1.541887554
0.07313967839
-0.3324530982
-1.243880311
0.09644853936
-0.4595102698
-1.122267555
0.07614184787
-0.5905595439
-0.6673133132
0.033661572
-0.3334039672
-0.003357440918
-0.4913018851
0.6395294023
0.01251731831
-0.4306453917
0.7254178476
0.05693467389
-0.3207849425
1.818775477
0.05616503932
-0.1918692418
1.742294891
0.08482468868
-0.01148202332
2.476181183
0.07243981994
0.173753313
2.058805115
0.09547110987
0.3251466987
2.229259716
0.08136335785
0.407790501
1.40776723
0.0752850191
0.4462865655
1.17455427
0.0472741434
0.4527423879
0.2809661866
0.0432829339
0.433919754
-0.04729943745
0.0439828717
0.3703154962
-0.8402870208
0.04932640616
0.2474761466
-1.12021055
0.03913132408
0.09771278072
-1.634092959
0.02888186648
-0.04298908996
-1.594890543
0.03522638637
-0.1321876101
-1.666337783
0.05342824949
-0.207639494
-1.344710554
0.07009331628
-0.2851965124
-1.203937306
0.05451828623
-0.3675801815
-0.7230109616
0.02589469275
-0.3593835168
-0.00246452658
-0.1638570988
0.006771457356
-0.1417549901
0.02028337856
-0.1057733206
0.02456514627
-0.06095065452
0.02949094398
-0.001906063768
0.03066481657
0.06223508624
0.03290591346
0.1105188007
0.03454892489
0.140772325
0.02671942796
0.1527212253
0.02252605369
0.1586597878
0.01607397422
0.1484275449
0.02026455895
0.1261479612
0.01813364536
0.08027946591
0.01513505515
0.02746286312
0.00878867802
-0.02068002788
0.01092916409
-0.04961741445
0.01811405842
-0.07275553955
0.02349328609
-0.09809274968
0.01999456141
-0.1250381654
0.007931239801
-8.131990173e-08
0.4735594969
-0.005564212901
-0.05525285357
0.8182340897
-0.06829518256
0.1218391187
1.097962482
-0.1361304572
-0.2219229752
0.994411799
-0.2423169726
-0.2461484698
0.6937477838
-0.2640597084
-0.5427224967
0.2645717731
-0.302072607
-0.434161879
-0.1395117298
-0.25630835
-0.3683429254
-0.4830170708
-0.2376528232
-0.0787266275
-0.7419688654
-0.1565205387
0.05799185732
-0.9343605095
-0.1185952687
0.1949897954
-1.080514258
-0.05446911654
0.2464266807
-1.126068667
-0.003526463262
0.38497039
-0.9794881461
0.08283532789
0.4873998224
-0.6532368577
0.1385780063
0.5737786962
-0.243760877
0.1955367179
0.605781484
0.1622933268
0.20138092
0.6058180997
0.4295942758
0.1919435763
0.547891662
0.5333484875
0.135952207
0.4102620297
0.5167864005
0.09149535235
0.2387003758
0.01983322638
0.04137672119
0.4498719158
-0.01124035816
-0.05974875932
0.7802972624
-0.1393621296
0.118136368
1.059542337
-0.2635249498
-0.2181675594
0.9720142482
-0.4689174169
-0.2348542173
0.6895285847
-0.5143219886
-0.5273716044
0.274615825
-0.5981600233
-0.4150424075
-0.1173886812
-0.5182436451
-0.3516583789
-0.4529819684
-0.4846789299
-0.07731634041
-0.7119994436
-0.3308498409
0.06422281827
-0.9074866349
-0.2473016999
0.2018242031
-1.052851614
-0.1121163316
0.2609039077
-1.093161993
-0.0001003789321
0.3866216773
-0.9477945704
0.174629627
0.4936899068
-0.6320056977
0.2857165185
0.5759353608
-0.2370495197
0.3958982261
0.6105288116
0.1525071485
0.4052981542
0.6014039107
0.4081596347
0.3835850911
0.5399058133
0.5060740843
0.2714457189
0.4029613653
0.4872749256
0.181260629
0.2372514945
0.0399379946
0.04417634232
0.4016208014
-0.01663663213
-0.06718826225
0.7068980914
-0.2135392066
0.1083261345
0.9836332732
-0.3723045621
-0.2129833979
0.9237558995
-0.667120608
-0.2163131318
0.6710964385
-0.7365973175
-0.4998148699
0.2844540384
-0.8801747913
-0.3772795149
-0.08413077334
-0.7760192047
-0.3338916662
-0.4022483621
-0.7441634073
-0.07057694529
-0.6552872026
-0.5156858373
0.05149443244
-0.8541447442
-0.3894422537
0.2168049632
-0.9884287397
-0.1657850654
0.2456933259
-1.02120057
0.01565753337
0.3850705284
-0.8778984305
0.2859284921
0.4731027077
-0.5844725647
0.4445450958
0.5734426936
-0.2202982069
0.6071756023
0.6009715449
0.1375636618
0.6121795883
0.5884433414
0.3682590201
0.5785451414
0.5172602241
0.4551007115
0.4078020135
0.3870662687
0.4310645939
0.2716609046
0.2315011563
0.06013036913
0.04876517845
0.333966263
-0.02130678956
-0.07942771015
0.6088197518
-0.2915211543
0.09553984478
0.8835122595
-0.4630822152
-0.2103667063
0.8556422449
-0.8359369811
-0.1935865998
0.643562305
-0.9296044767
-0.4579488833
0.2996260223
-1.138268179
-0.3278348286
-0.03270855377
-1.02728337
-0.290546631
-0.3200090924
-1.001906009
-0.05847181933
-0.5621028741
-0.715417496
0.07748772917
-0.7585210978
-0.5363550227
0.2278235868
-0.8932315697
-0.2170900905
0.2691493961
-0.9184579576
0.04388793647
0.3652733287
-0.7881227368
0.404338379
0.4648571848
-0.5277377836
0.6104633002
0.5515305199
-0.2062888061
0.8170710921
0.5893494728
0.1054177746
0.8179085092
0.5589126208
0.3023884004
0.769434066
0.4855978298
0.3724803279
0.5443449382
0.3600799363
0.3438615888
0.3601346075
0.222300414
0.08199644217
0.05194299101
0.2397386806
-0.02389260934
-0.09059935369
0.4859179197
-0.373644718
0.07857094005
0.7537408791
-0.5368729315
-0.2103563844
0.7567200978
-0.9830778648
-0.1714344365
0.5870321293
-1.090341115
-0.4194416203
0.2963836328
-1.368447796
-0.2735818422
0.01571364831
-1.245576366
-0.2628159053
-0.2270331515
-1.239437935
-0.03407395986
-0.4451265644
-0.8878316509
0.06184576996
-0.6293701536
-0.6737858884
0.2393480016
-0.7424646215
-0.242905724
0.2088599665
-0.7666958497
0.07857148804
0.3332993742
-0.6568530029
0.534443962
0.3888833834
-0.4415715633
0.771193505
0.5094744114
-0.1804712866
1.024587467
0.5351737895
0.07120905694
1.012521622
0.5093020331
0.2195140488
0.9541681133
0.4299311665
0.266860939
0.6769141601
0.3212580444
0.2299707997
0.4486867672
0.2028138101
0.1040916137
0.05312354686
0.1299838888
-0.02436206104
-0.1024643329
0.3513839558
-0.4600924121
0.06725335093
0.6127423819
-0.602104181
-0.2087467604
0.6448159589
-1.115711262
-0.1465543557
0.5238958408
-1.227595252
-0.3736224494
0.2973925542
-1.564051655
-0.2206048967
0.0852787108
-1.428807213
-0.2034421878
-0.1025614998
-1.435333539
-0.001602020864
-0.2878474692
-1.036644713
0.1095566837
-0.4474484507
-0.7846896282
0.2432404028
-0.560681717
-0.2624716968
0.2323428398
-0.5921282787
0.1092313002
0.2861312517
-0.5184998399
0.635980335
0.3517892776
-0.3574543247
0.9042120792
0.4422377623
-0.1640230089
1.191992942
0.4799766838
0.01712698769
1.175451415
0.4372623897
0.11028693
1.110526689
0.3670868122
0.1270485565
0.796054142
0.2708783559
0.08306264533
0.528401494
0.1784482795
0.1268672592
0.04968890841
-0.007058449229
-0.0211561254
-0.1077475101
0.1978802267
-0.5449876731
0.06057198091
0.447382723
-0.6585805923
-0.2028203613
0.5073639432
-1.238909527
-0.1206289476
0.435397228
-1.335933394
-0.3359062919
0.281028834
-1.719444254
-0.1664634693
0.1427574212
-1.547078727
-0.1672652645
0.02190142144
-1.569569123
0.03550509871
-0.116975912
-1.108339168
0.09542945886
-0.2410578254
-0.856159199
0.2441854309
-0.3244575564
-0.2393765634
0.1317300422
-0.370701107
0.1258248393
0.2379091234
-0.3398638084
0.7183024597
0.2496993066
-0.2425586108
0.9880902113
0.3663139422
-0.1325617269
1.312579117
0.3834410899
-0.03489653472
1.282845669
0.3533663542
-0.008620849499
1.227225128
0.2844103779
-0.02803030044
0.8861767911
0.2124353404
-0.08208126421
0.5966269084
0.1447577659
0.145891919
0.04341998461
-0.149073884
-0.01078076698
-0.1094968138
0.04087076752
-0.6170379243
0.06628976362
0.2791597584
-0.7011956884
-0.1856277016
0.3687569258
-1.341010024
-0.08488807736
0.3544411177
-1.41363961
-0.2809739066
0.2802143382
-1.822883534
-0.1075161354
0.2258546116
-1.605591722
-0.09282210675
0.1768871848
-1.62606286
0.07781918424
0.08795207839
-1.125967788
0.1540370544
0.00597292827
-0.8757208804
0.2350426188
-0.08701303038
-0.228724589
0.1721716731
-0.1488282712
0.1249574193
0.188531204
-0.1695364925
0.7378425073
0.2221688709
-0.1390784614
1.007782242
0.2887889412
-0.1114262368
1.350014123
0.3123277892
-0.1027937091
1.317937275
0.2684634472
-0.1395238841
1.273653808
0.2131085576
-0.20026382
0.9294477424
0.153678766
-0.2699271399
0.6358013401
0.1112799714
0.1575898256
0.03362549033
-0.3182947948
0.0096270786
-0.1037809255
-0.1478296244
-0.6629177766
0.07624467923
0.0911744032
-0.7097021353
-0.1604813802
0.2166586311
-1.401218017
-0.04269082817
0.2645280956
-1.428276806
-0.2254050317
0.2761685836
-1.853626718
-0.04106606745
0.3050685475
-1.575126159
-0.04015577114
0.3272808996
-1.597212681
0.1224891768
0.2899620624
-1.061423389
0.1486896794
0.2330163203
-0.8457934339
0.2256107899
0.1661689015
-0.2013571822
0.1167998766
0.09226096331
0.1072319015
0.155454265
0.02615411822
0.7196894485
0.1512863398
-0.01120313831
0.9611525557
0.2245669426
-0.07359591126
1.309992742
0.2260095761
-0.1552326116
1.264397893
0.1921308081
-0.2658492908
1.246515329
0.142621381
-0.373715635
0.9111115639
0.1016030623
-0.4681418081
0.6407998289
0.07704965243
0.1559852328
0.02233292851
-0.4855493829
0.04058774933
-0.0953623182
-0.3313298062
-0.6742455275
0.09311482611
-0.08693639521
-0.6718659557
-0.1219060865
0.07781810394
-1.388435301
0.01108550889
0.1947543754
-1.359008857
-0.1438190966
0.2963671883
-1.791412781
0.03826728462
0.4101966512
-1.456832725
0.04239318338
0.4941942844
-1.484914992
0.1646654285
0.4953685685
-0.9447836822
0.1896892515
0.4624258075
-0.7774729963
0.2139960399
0.3915947456
-0.174264362
0.1438587865
0.3063178849
0.07475321751
0.1272527324
0.2007644468
0.647303049
0.1411195474
0.09086161555
0.8439579556
0.1711138308
-0.04758047864
1.174386256
0.174305582
-0.2120192978
1.112908743
0.1295246604
-0.3895695498
1.123210397
0.09309946248
-0.5484279073
0.8183343298
0.06034554292
-0.6680368129
0.5964246
0.04809960771
0.1402415895
0.01114066428
-0.6614749586
0.0811946799
-0.08361741684
-0.5199349663
-0.642548006
0.1080288188
-0.2689922088
-0.5652179384
-0.08125741465
-0.06553044015
-1.281193285
0.06538742805
0.1269905284
-1.1833549
-0.06268261423
0.3198185569
-1.616210418
0.1227709245
0.5113567994
-1.239700443
0.09917946193
0.6447416876
-1.29498853
0.1981673934
0.6794828399
-0.7745066481
0.1785607209
0.6643269458
-0.680121067
0.197855365
0.6104982473
-0.1395323184
0.112250324
0.5153420494
0.02865838008
0.1111697408
0.3727490788
0.5395309739
0.1043260664
0.1986914221
0.6616213743
0.1338531096
-0.01248982595
0.9578036667
0.1215320681
-0.2491474786
0.8673572072
0.08654895422
-0.4919207034
0.9088258839
0.05684431705
-0.7002345651
0.6466223887
0.03235753505
-0.8519050467
0.5029802952
0.02608748804
0.1077791515
3.092753424e-06
-0.8099832286
0.1304393521
-0.06896257751
-0.6789808972
-0.5659950414
0.1254728711
-0.4220537146
-0.3902430618
-0.0269654426
-0.1847425421
-1.074409032
0.1284987477
0.08231518379
-0.9042147097
0.03827586735
0.3592276055
-1.32595402
0.2085937542
0.6156346363
-0.9348068017
0.1741705963
0.7839241575
-1.042057016
0.2246527009
0.8370231345
-0.5761390273
0.1955020465
0.8350291289
-0.5714932119
0.1809704988
0.7791228079
-0.1062238209
0.1240267805
0.6758744909
-0.03766333981
0.09757915107
0.4967787422
0.3868430417
0.1020761176
0.2699954783
0.4148315277
0.1039911763
0.002872627272
0.6584884702
0.09499605884
-0.2845781369
0.5379435942
0.05930976917
-0.5728207871
0.6130465478
0.04128509777
-0.8235622539
0.4059775887
0.01814938293
-1.002417663
0.3591354967
0.01011809423
0.0593934067
-0.00906418496
-0.9401643775
0.1890929515
-0.0532625661
-0.8169112049
-0.4475537313
0.1417707692
-0.5579149881
-0.1524886422
0.01997158563
-0.2878812319
-0.7775670401
0.1880078088
0.04504669585
-0.5225496363
0.1214048413
0.3898656282
-0.936350485
0.2812105836
0.6966724288
-0.5473990362
0.2173097798
0.8894524248
-0.7414954786
0.2410664923
0.9570827352
-0.3516049679
0.1790936796
0.9646485273
-0.459874162
0.1648611757
0.9176381653
-0.08313829563
0.1041873597
0.8041582839
-0.130213105
0.09195246065
0.5981204584
0.1906108231
0.08261108204
0.3261453487
0.1131073825
0.08497767815
0.01748428302
0.2979585251
0.07096628392
-0.2992347504
0.1481229182
0.04933860445
-0.6212348436
0.2606886188
0.0431167501
-0.9025231152
0.1143020793
0.01654533095
-1.107545966
0.1783230189
0.004114444295
-0.002794937507
-0.0183448714
-1.011294287
0.2555076649
-0.0317199361
-0.8961494668
-0.2907046196
0.1608591975
-0.6421061113
0.1408539906
0.07958065841
-0.3496794013
-0.4027257695
0.2468274747
0.02660987063
-0.05841106339
0.2129407595
0.4168003502
-0.4662521372
0.3421424357
0.7465706015
-0.1011054477
0.2725474894
0.9507293234
-0.4029481303
0.2560894277
1.024597072
-0.1155740517
0.1894322258
1.042554986
-0.3499403209
0.1532892554
0.9900692891
-0.07857568502
0.1124984787
0.8655745669
-0.2502035981
0.0876444374
0.6331656263
-0.04831743808
0.08280210469
0.3368211608
-0.2342450394
0.06824718841
0.01222101052
-0.1035042595
0.06034978036
-0.3093730842
-0.2768808364
0.04952037399
-0.6371276113
-0.1209206385
0.0551444492
-0.9295812691
-0.2045503242
0.02635136424
-1.147169243
-0.02505961755
0.0005335252769
-0.07921987399
-0.02355044877
-1.039599537
0.3327077431
-0.01321458294
-0.9335524924
-0.1006616264
0.1770054143
-0.6888218444
0.4846512314
0.1204549721
-0.3891456696
0.03997364673
0.2904435564
0.01168750168
0.4790501636
0.2587281486
0.4190083327
0.06417808141
0.3753436309
0.7541739618
0.3934644833
0.2889932397
0.9530203128
-0.03171146778
0.2657851596
1.042858056
0.1426480639
0.1768986112
1.067479285
-0.2340621193
0.1455529296
1.02105707
-0.0874548869
0.1018858864
0.8788529804
-0.3984139892
0.09267429576
0.6327181762
-0.3185761084
0.07630807604
0.3289531905
-0.6027566861
0.06081037574
0.007865081266
-0.5165150688
0.05369679563
-0.300128761
-0.6974835121
0.05962851097
-0.6165889833
-0.4984639606
0.07883295654
-0.9070024522
-0.5211998994
0.0424515066
-1.124201467
-0.2337217774
0.00695289346
-0.1594085419
-0.02924244773
-0.9840929973
0.4129629347
0.008650994879
-0.887758575
0.1078292967
0.1860278999
-0.6665771838
0.8423808395
0.1627245929
-0.3806776958
0.5056174354
0.3108313524
0.006454366374
1.032220627
0.2969409798
0.3983126733
0.6135834604
0.3799453474
0.7067905378
0.8919568849
0.312414817
0.8934433901
0.3520590478
0.2703415435
0.9865181477
0.4070313702
0.1902295273
1.020402009
-0.1145080434
0.1394659709
0.9678282207
-0.1087734813
0.1120154659
0.8181056307
-0.5645019887
0.09493016354
0.5718351842
-0.59662641
0.08000777961
0.286281247
-0.9652062929
0.05045870564
-0.00544335393
-0.9074466109
0.04819918107
-0.2774828466
-1.082421168
0.06723701194
-0.5607538614
-0.8441959079
0.09258522835
-0.8299084456
-0.8129359104
0.05888210965
-1.026377124
-0.4255924949
0.008368110287
-0.2360092252
-0.02806830149
-0.87355028
0.4893509767
0.0168160422
-0.7906589862
0.3106109939
0.1772846032
-0.6013431871
1.187271959
0.1603668965
-0.3481370577
0.9456059579
0.2925897134
-6.893914581e-05
1.555944298
0.2698138781
0.3476008615
1.1298424
0.3438590049
0.6133394628
1.361097064
0.2746321421
0.7765792425
0.719335658
0.2538741965
0.8710349821
0.6692918993
0.165725353
0.9099032233
0.00554170685
0.1303844613
0.8635995864
-0.1324461268
0.09745377818
0.7135780563
-0.7295033918
0.0959014764
0.4885956006
-0.8575126528
0.07466444558
0.2388928872
-1.287872056
0.04828052816
-0.009806937171
-1.241499427
0.04884771675
-0.2353439493
-1.40500772
0.07613270077
-0.4772184522
-1.13622907
0.1069732183
-0.7108158454
-1.058452665
0.07004157328
-0.8767848607
-0.5843207334
0.01805955778
-0.3009867758
-0.02743884261