/*--------------------------------*- C++ -*----------------------------------*\
| =========                 |                                                 |
| \\      /  F ield         | OpenFOAM: The Open Source CFD Toolbox           |
|  \\    /   O peration     | Version:  5.x                                   |
|   \\  /    A nd           | Web:      www.OpenFOAM.org                      |
|    \\/     M anipulation  |                                                 |
\*---------------------------------------------------------------------------*/
FoamFile
{
    version     2.0;
    format      ascii;
    class       volScalarField;
    location    "3.6";
    object      T;
}
// * * * * * * * * * * * * * * * * * * * * * * * * * * * * * * * * * * * * * //

dimensions      [0 0 0 1 0 0 0];

internalField   nonuniform List<scalar> 
30538
(
275.0637526
272.988996
272.9617888
272.9578977
272.9605087
272.9638073
272.9665057
272.9708185
272.9797974
272.9899195
272.9992792
273.0067954
273.0130326
273.0196322
273.0267377
273.0331667
273.0356837
273.0326809
273.0172288
272.4585454
275.0589196
272.9865876
272.9598887
272.9563208
272.9590877
272.9624352
272.9649831
272.968796
272.9769888
272.9865189
272.9956255
273.0031675
273.009306
273.0156225
273.02249
273.0288091
273.0314656
273.0287041
273.0135383
272.455422
275.0454677
272.9867787
272.9611126
272.958128
272.961224
272.9646735
272.9669134
272.969758
272.9765565
272.9849167
272.9936516
273.0012028
273.0072987
273.0132011
273.0196557
273.0257646
273.0286548
273.0263133
273.0119867
272.4469283
275.03026
272.9869023
272.9625722
272.9603362
272.9639446
272.9675789
272.9693911
272.970895
272.9757839
272.9827568
272.9910281
272.998646
273.0048689
273.010407
273.0163971
273.0222238
273.0254138
273.0235679
273.0102485
272.4434598
274.9917228
272.9866466
272.9638628
272.9623638
272.9666203
272.9705772
272.9719391
272.9719067
272.9746858
272.9802495
272.9880987
272.9958286
273.0023973
273.0077967
273.0134073
273.0189422
273.0223883
273.021042
273.0087473
272.4302305
274.9539459
272.9860983
272.9647048
272.963786
272.9687544
272.9730761
272.9740495
272.9724193
272.9733763
272.977722
272.9852024
272.9931677
273.0002683
273.0057066
273.0111698
273.0164676
273.0200873
273.0191241
273.0077138
272.4286883
274.8840093
272.9851274
272.9650478
272.9644565
272.9699467
272.9745064
272.9751194
272.9722963
272.9719348
272.975459
272.9827961
272.9910698
272.9987643
273.0045178
273.0099443
273.0150575
273.0187698
273.0179799
273.0073206
272.4219047
274.8203553
272.9841786
272.9649599
272.9643038
272.9698518
272.9744185
272.9747587
272.9714159
272.9704726
272.9738236
272.9812066
272.9899752
272.9981943
273.0043879
273.0098683
273.0148179
273.0184587
273.0175753
273.0075572
272.4299061
274.7175897
272.9831702
272.9647095
272.9634585
272.9685013
272.9727044
272.9728339
272.969718
272.9691216
272.9730182
272.9808576
272.9901265
272.9987392
273.0053471
273.0110357
273.015772
273.0190677
273.0179057
273.0083594
272.44078
274.6301437
272.9824741
272.9645036
272.9622797
272.9661261
272.9695253
272.9695587
272.9673895
272.968072
272.973104
272.9817597
272.9915341
273.0004012
273.0074256
273.0133732
273.0178954
273.0205474
273.0189499
273.009581
272.4624485
274.4973523
272.9818979
272.9645347
272.9611605
272.9631116
272.9654466
272.9654824
272.9648333
272.9674736
272.9741571
272.9838679
272.9940529
273.003186
273.0105827
273.0167549
273.0210172
273.0228242
273.0205982
273.0111458
272.497315
274.3876763
272.9818184
272.9649013
272.9603145
272.9602226
272.9612987
272.9614695
272.9626275
272.9674365
272.9760134
272.9867153
272.9972855
273.0065936
273.0144249
273.0207726
273.0247204
273.0254967
273.0224664
273.0127568
272.5309404
274.22713
272.981747
272.965685
272.9600421
272.9582577
272.9579585
272.9584061
272.9612777
272.9681743
272.9784418
272.9898967
273.0006623
273.0100838
273.0183286
273.0248975
273.0284598
273.0281034
273.0241824
273.014293
272.588213
274.0990906
272.9820571
272.9669937
272.960699
272.9576389
272.9563529
272.9569539
272.9612352
272.9697565
272.9811668
272.9928468
273.0035129
273.0129697
273.0215405
273.0282566
273.0315247
273.0300107
273.0253047
273.015355
272.6264364
273.9188565
272.9825416
272.96921
272.9627257
272.959176
272.9570746
272.9578225
272.962876
272.9723864
272.9839646
272.9953143
273.0053671
273.0146608
273.0232287
273.0299834
273.0327678
273.0303543
273.0251133
273.0157421
272.7007643
273.7810113
272.9837955
272.9723404
272.966361
272.9627839
272.9604549
272.9611581
272.9664324
272.9758333
272.9867206
272.9969915
273.0060218
273.0146638
273.0228163
273.0291359
273.0314445
273.0285176
273.0233045
273.0149776
272.7375248
273.5909572
272.9857258
272.9766478
272.9715769
272.9684556
272.9662816
272.9668959
272.9717472
272.9802058
272.9895333
272.9980757
273.0055925
273.0131106
273.0203211
273.0258086
273.0275601
273.0245973
273.019939
273.0132716
272.8244785
273.4506831
272.9888385
272.9822069
272.9784586
272.9760247
272.9743747
272.9747311
272.9786824
272.9852627
272.9924486
272.9987763
273.004461
273.0103047
273.0159967
273.0202346
273.0214072
273.0189062
273.0152601
273.0104651
272.8557636
273.2508826
272.9960829
272.9910427
272.9952034
272.9905994
272.9954371
272.9906123
272.996101
272.9949963
273.0002958
273.0007916
273.0049577
273.0066208
273.0106567
273.0103322
273.0126555
273.0086205
273.0092582
273.0057702
272.9452177
272.5522969
274.2955289
273.1234128
274.8113828
273.6375927
275.0055598
273.8708776
274.8514713
273.7869478
274.4278847
273.4301361
273.85508
272.9585953
273.3405703
272.58438
273.0475631
272.4450145
273.040341
272.5624092
273.2139317
275.4806306
272.9952649
272.9663846
272.9617836
272.9623025
272.9641756
272.9664819
272.9708544
272.980136
272.9903737
272.9997737
273.0067067
273.0121096
273.0178726
273.0240259
273.0290175
273.0312213
273.0291276
273.0126366
272.2676552
275.4761799
272.992866
272.9644387
272.9600579
272.9607455
272.962664
272.9649359
272.969007
272.9777246
272.9873275
272.9964273
273.0033366
273.0086753
273.014231
273.0202146
273.0252247
273.0275325
273.0255321
273.0092947
272.2608084
275.4649543
272.993153
272.9655757
272.9615944
272.9625512
272.9645354
272.9667328
272.9702494
272.9778763
272.9863866
272.9950316
273.0019072
273.0071847
273.0124104
273.0180728
273.0230689
273.0255574
273.0237342
273.0080812
272.248599
275.4495349
272.9934215
272.9670289
272.9635576
272.9648822
272.9669471
272.9689782
272.9716781
272.9778395
272.9850795
272.993248
273.0001881
273.0054989
273.0103734
273.0156364
273.020544
273.0232005
273.0215724
273.0066807
272.2362918
275.4143286
272.9933766
272.968464
272.9655313
272.9673259
272.9694752
272.9712394
272.9728993
272.977453
272.9834929
272.991348
272.9984279
273.0039828
273.0085665
273.0134854
273.0182179
273.0209669
273.0194926
273.0054242
272.2186004
275.3726721
272.9929864
272.9695911
272.9671711
272.9694103
272.9716599
272.9730085
272.973611
272.9766542
272.981748
272.98947
272.9968305
273.0028297
273.0073312
273.0120113
273.016521
273.0192173
273.0178286
273.0045412
272.2078863
275.3023611
272.9920838
272.9702145
272.968171
272.9707688
272.973035
272.973898
272.9735984
272.975489
272.980027
272.9879174
272.9956243
273.0022113
273.0068507
273.0114612
273.0157357
273.0182228
273.016739
273.0041895
272.1996804
275.2267626
272.9909167
272.9702779
272.9683505
272.9710029
272.9731507
272.9735696
272.9727558
272.974102
272.9786369
272.9867696
272.995054
273.0021861
273.0071759
273.011881
273.015944
273.0180387
273.0163492
273.004458
272.2032599
275.1151201
272.9894761
272.9699415
272.9677046
272.9700002
272.9718322
272.971953
272.9711494
272.9726559
272.9777
272.9862944
272.9951313
273.0027612
273.0082514
273.0131692
273.017021
273.0186614
273.0166428
273.0052652
272.2191595
275.0042894
272.988168
272.9694136
272.9665181
272.9678638
272.9691597
272.9692506
272.9690318
272.9713682
272.9772854
272.9864906
272.9958704
273.0039349
273.0100073
273.0151783
273.0188796
273.0200116
273.0176016
273.0065467
272.2442462
274.8526046
272.987002
272.9689688
272.9650601
272.9649975
272.9656032
272.965875
272.9667449
272.9704427
272.977515
272.9874283
272.9972403
273.0057399
273.0123545
273.0177989
273.0213523
273.0219822
273.0191179
273.0082142
272.2922695
274.7090484
272.9862316
272.9687766
272.9636882
272.9620966
272.9618804
272.9625309
272.9647519
272.9700466
272.9783979
272.9888727
272.9990449
273.0079049
273.0150496
273.0207207
273.0240631
273.0241401
273.0208363
273.0100589
272.3373487
274.5213155
272.9855074
272.9689523
272.9627951
272.9598611
272.9588349
272.9599462
272.9635155
272.9703382
272.9797931
272.9906647
273.0010153
273.0101512
273.0177123
273.0235703
273.026578
273.0260617
273.0223395
273.0118341
272.4159269
274.3527416
272.9851504
272.9696278
272.9627768
272.9588158
272.9572435
272.9586596
272.9633801
272.9713573
272.9815382
272.9924019
273.002699
273.0119884
273.0198602
273.0257192
273.0283721
273.0272106
273.0232396
273.0131787
272.4709458
274.1396613
272.9849813
272.9711303
272.9640131
272.95971
272.9576743
272.9592897
272.9646434
272.9732854
272.9835349
272.9940079
273.0037648
273.0128765
273.0207029
273.0264016
273.0285384
273.0269275
273.0228625
273.0137609
272.571642
273.958313
272.9855535
272.9736315
272.9669166
272.9627105
272.9605934
272.9621676
272.9675366
272.9760443
272.9857785
272.9952645
273.0040621
273.0124733
273.01984
273.0249983
273.026636
273.0247753
273.0209811
273.0132062
272.6268928
273.732341
272.986873
272.9773951
272.9715813
272.9679047
272.965995
272.9673509
272.9721357
272.9798409
272.988342
272.9963497
273.0037187
273.0109218
273.0173567
273.0217101
273.0228284
273.0209743
273.0177443
273.0117124
272.7419582
273.5480672
272.9894119
272.9824965
272.9780806
272.9751888
272.9737947
272.9747108
272.9785351
272.9845963
272.9912774
272.9973313
273.002912
273.0084266
273.0134571
273.0167471
273.0174076
273.0158411
273.0133992
273.0091866
272.7912284
273.311326
272.9964552
272.9915758
272.9959083
272.9912679
272.9965074
272.9919455
272.9969337
272.9951448
272.9997711
272.999836
273.0038038
273.0047798
273.0083917
273.0064292
273.0088887
273.0049785
273.0074318
273.00418
272.9104159
272.6295612
274.394861
273.3442138
275.0359037
273.9771186
275.2888266
274.2439384
275.1082213
274.0717055
274.587761
273.5551052
273.9016392
272.9168031
273.2969431
272.4141008
272.976757
272.2309263
273.0197912
272.3894983
273.2691677
275.9515497
273.0053898
272.975577
272.9702531
272.9674308
272.9676984
272.9713212
272.9762143
272.9845232
272.9939616
273.0034954
273.0094753
273.0131727
273.0172089
273.0222437
273.0264142
273.0288278
273.027687
273.0088889
271.786611
275.9487135
273.0029316
272.9734422
272.9682164
272.9658081
272.9661403
272.9695847
272.974528
272.9827092
272.9915565
273.0005098
273.0062165
273.0098828
273.0138686
273.0188631
273.0231177
273.0255496
273.0243708
273.0056766
271.7785769
275.9373376
273.0031479
272.9742211
272.96928
272.9674532
272.9678486
272.9710256
272.9760404
272.9838627
272.9917156
272.9996678
273.0050361
273.0087307
273.0126057
273.0174154
273.0217437
273.0242013
273.0229814
273.0048496
271.7509102
275.9262476
273.0034485
272.9753229
272.9707854
272.9695554
272.9699161
272.9727993
272.9777363
272.9849452
272.9915948
272.9985411
273.003727
273.0075545
273.0112745
273.0157209
273.0199924
273.0223636
273.0211089
273.0037538
271.7363312
275.8873691
273.0034549
272.9765964
272.9725059
272.9718515
272.9720761
272.974592
272.9791145
272.9855271
272.9909764
272.9972592
273.0024362
273.0066416
273.010178
273.0142293
273.0182591
273.0203738
273.0190358
273.0025881
271.6957923
275.8503758
273.0032017
272.97776
272.9741346
272.9740349
272.9740294
272.9759936
272.9798572
272.9853509
272.9899258
272.9959991
273.0014669
273.0061735
273.0096043
273.0132882
273.0169711
273.0186358
273.0171428
273.0016488
271.686192
275.7673745
273.0021917
272.9785338
272.9753304
272.97567
272.9753709
272.9766708
272.9797178
272.9843639
272.9886155
272.9949732
273.0009426
273.0062051
273.0095815
273.0130112
273.016343
273.0174742
273.0156871
273.0011537
271.6610377
275.6928317
273.0009095
272.9787193
272.9757767
272.9762933
272.9757039
272.9763822
272.9787751
272.9828774
272.9872874
272.9941522
273.0008485
273.006588
273.0101472
273.013501
273.0165252
273.0171278
273.0149122
273.0011844
271.673799
275.5548893
272.9989773
272.9782929
272.9753255
272.9756371
272.9747366
272.9750871
272.977173
272.9811238
272.9859937
272.9935617
273.0009145
273.0071937
273.0112131
273.0146157
273.0174801
273.0176182
273.0149382
273.0018253
271.6909321
275.4402481
272.9972621
272.9774237
272.9740112
272.9736778
272.9725058
272.972982
272.9752474
272.9795204
272.9849359
272.993054
273.0011218
273.0080056
273.0126374
273.0163305
273.0191142
273.0189416
273.0157926
273.0030502
271.7379676
275.2449903
272.9951922
272.9763627
272.9720931
272.9707475
272.9693113
272.970268
272.9732771
272.9782087
272.9842677
272.9927533
273.0014226
273.0089809
273.0143095
273.0184223
273.0212031
273.0208644
273.0173607
273.0049044
271.8097173
275.0927797
272.9937258
272.9754124
272.970018
272.9674958
272.9657939
272.9674244
272.9715527
272.9773661
272.9840373
272.9927227
273.0018965
273.0100461
273.0160854
273.0205904
273.0233569
273.022888
273.0192506
273.0070509
271.8878018
274.8458334
272.9919973
272.9748072
272.9683325
272.9646495
272.9627088
272.9651017
272.9703415
272.9769954
272.9841947
272.9930731
273.0025483
273.0111612
273.0176882
273.0224437
273.0250426
273.0245284
273.0209325
273.0092747
272.0118046
274.6644787
272.9909574
272.9747129
272.9674518
272.9627444
272.9608141
272.9638231
272.9698582
272.9770705
272.9847287
272.9936942
273.0032676
273.0120627
273.0189177
273.0235697
273.0258591
273.0252778
273.0219407
273.0109919
272.1073975
274.3805618
272.9898378
272.9755016
272.9677734
272.9625864
272.9607294
272.9641097
272.9703329
272.9777237
272.9856598
272.9945969
273.003887
273.012399
273.0190215
273.0233619
273.0251542
273.0246214
273.0216147
273.0119145
272.2689698
274.1838559
272.9897059
272.9773279
272.9697761
272.9644993
272.9629229
272.9662585
272.9720067
272.9790925
272.9870358
272.9956823
273.0042373
273.0118375
273.0178648
273.0215345
273.0228133
273.0223778
273.019864
273.0116819
272.3672444
273.8814215
272.9900835
272.9803986
272.9736337
272.9687509
272.9675574
272.9705487
272.9753453
272.981642
272.9889774
272.996903
273.0042234
273.010498
273.0155093
273.018397
273.0191772
273.0188631
273.0168893
273.0105779
272.5496232
273.6813316
272.9918653
272.9847992
272.9795047
272.9753854
272.9748133
272.9769814
272.9806517
272.9855141
272.9916227
272.9980472
273.0037343
273.0083604
273.0121113
273.0141549
273.0145495
273.0143269
273.012908
273.00845
272.641471
273.3668165
272.9998272
272.993096
273.0006044
272.9916164
273.0012167
272.9937086
273.0003238
272.9954096
273.000226
273.0002024
273.0041391
273.0042546
273.0060076
273.0037437
273.0047234
273.0033932
273.0056752
273.0037424
272.8310448
272.4240201
274.8323279
273.2837392
275.6057258
274.0336064
275.8515563
274.336404
275.5037163
274.1073371
274.7309794
273.4866385
273.7813418
272.7369307
272.9526723
272.1733123
272.5191763
272.0456846
272.6220035
272.3712681
273.0182209
277.2876743
273.0257931
272.9852489
272.9801474
272.9752796
272.9744325
272.9813138
272.9891513
272.9944065
272.9992154
273.0074352
273.0134456
273.0162047
273.0178757
273.0222037
273.0275539
273.0312018
273.0300593
273.0051432
270.9772477
277.2911233
273.023273
272.9830649
272.9778922
272.9737363
272.9733253
272.9791195
272.9866845
272.9928439
272.9979118
273.0049281
273.0099085
273.0125972
273.0146487
273.019049
273.0242896
273.027705
273.0265329
273.0018181
270.9524613
277.2993702
273.0234155
272.9835548
272.978457
272.9755837
272.9755028
272.9798236
272.9870881
272.9945233
272.9997336
273.0048602
273.0081981
273.0108855
273.0134605
273.0178868
273.022846
273.0258705
273.0247054
273.0011592
270.90472
277.3010056
273.0233938
272.9840599
272.9792161
272.9779884
272.9778725
272.9807227
272.9876851
272.9961132
273.0011791
273.0042604
273.006089
273.008644
273.0118599
273.0162121
273.0207082
273.0232222
273.0221218
273.0001578
270.8478619
277.2883471
273.0230261
272.9847115
272.9802618
272.9805248
272.9801805
272.9816705
272.9881783
272.9971312
273.0016357
273.0031654
273.0039361
273.0067589
273.0102681
273.0143948
273.018211
273.020156
273.019124
272.9990081
270.7804341
277.2523203
273.0222522
272.985538
272.9814609
272.982812
272.9821108
272.9823711
272.9881676
272.9970307
273.0010841
273.001649
273.0020748
273.0052872
273.0090239
273.0127775
273.0158411
273.0171346
273.0161133
272.997921
270.7269721
277.1793138
273.0209115
272.9863199
272.9825089
272.9844986
272.9833734
272.9825673
272.9874215
272.9959449
272.9997597
273.0001899
273.0008401
273.0046815
273.0083981
273.0117101
273.0141137
273.0147581
273.0135316
272.9970648
270.6890462
277.0739758
273.0191377
272.9867335
272.982986
272.9850997
272.9836233
272.9820381
272.9860426
272.9939537
272.9981727
272.9991329
273.0004629
273.0047641
273.0084599
273.0113809
273.0133547
273.0134252
273.0118937
272.9967704
270.6823182
276.9129446
273.0166889
272.9864876
272.9826262
272.9844464
272.9826582
272.9808143
272.9843188
272.9917727
272.996309
272.9983079
273.0006849
273.0054309
273.0091803
273.0119906
273.0137724
273.0134481
273.0114807
272.997109
270.7192084
276.7244244
273.0139835
272.9855075
272.9812779
272.9824534
272.9804742
272.9789627
272.9826216
272.9897942
272.9944407
272.997508
273.0010572
273.0064624
273.0105351
273.0135141
273.0153819
273.0148397
273.0123281
272.998376
270.7869561
276.4656039
273.0106937
272.9839277
272.979114
272.9794523
272.9772539
272.9766291
272.9810701
272.9883009
272.9931181
272.9967592
273.001392
273.0076743
273.0124001
273.0157369
273.0178698
273.017286
273.0142242
273.0002695
270.9175833
276.1985909
273.0074259
272.9821491
272.9766741
272.975904
272.9734686
272.9740305
272.9797277
272.9872603
272.9921758
272.9961242
273.0017549
273.0090037
273.0145769
273.0183109
273.0206583
273.0201484
273.0167021
273.0028856
271.0539843
275.8552995
273.0038021
272.9806754
272.9744627
272.972515
272.9698826
272.9718516
272.9787324
272.9866215
272.9914641
272.9957944
273.0023116
273.010433
273.0166578
273.0206098
273.0230188
273.0226844
273.0190706
273.0055366
271.2698817
275.5332824
273.0008139
272.9799793
272.9730272
272.9697875
272.9673434
272.9707193
272.9783396
272.9861294
272.9909356
272.9958773
273.003319
273.0119357
273.018439
273.0221018
273.024356
273.0242102
273.0206945
273.007751
271.4471154
275.1325999
272.9979556
272.9803294
272.9727775
272.9684668
272.9663731
272.9709973
272.9786417
272.9857403
272.9905811
272.9966102
273.0047565
273.0131986
273.0189986
273.0222094
273.02401
273.0242356
273.0209536
273.0089061
271.7212046
274.7871786
272.9962762
272.9817903
272.9740942
272.9687945
272.9673648
272.9728256
272.9796581
272.985479
272.9906312
272.9977999
273.0062938
273.0136253
273.0182
273.0206095
273.0220291
273.0226159
273.0197858
273.0091113
271.9048203
274.359451
272.9950894
272.9843535
272.9771526
272.9712719
272.970668
272.9763842
272.9818819
272.9861646
272.9913724
272.999164
273.0072205
273.0129312
273.0160315
273.0176547
273.0187958
273.0196444
273.0173255
273.0083892
272.2099789
274.0137225
272.9954606
272.9879773
272.9823191
272.9764771
272.9769534
272.9817419
272.9858147
272.9883639
272.9930197
273.0002104
273.0069389
273.010893
273.0126515
273.0136705
273.0145941
273.0154829
273.0137175
273.0069427
272.3797096
273.5724722
273.0038109
272.9979396
273.0089051
272.9989262
273.0111186
273.0049396
273.0099486
273.0009725
273.0029451
273.002497
273.0068281
273.0049423
273.0047733
273.0005533
273.0030194
273.0021082
273.0057714
273.0022707
272.6960449
272.6665201
275.1957779
274.0054489
276.396334
275.1795877
276.8363472
275.6103936
276.3756847
275.0630762
275.2446393
273.8723622
273.8732551
272.5287195
272.7137015
271.5072557
272.1801737
271.2331402
272.4744909
271.7485024
273.1847758
278.4907971
273.0466415
272.9927709
272.9894691
272.9891857
272.9854602
272.9930667
273.0064882
273.0124521
273.0087498
273.0109496
273.0162137
273.0198844
273.0204023
273.0239622
273.030645
273.0352353
273.0333622
272.9997903
269.6755844
278.5057874
273.0440588
272.9911267
272.9872221
272.9865291
272.9851002
272.9913676
273.0028293
273.0095743
273.0078818
273.0094454
273.0129387
273.0162609
273.0172362
273.0208646
273.0269926
273.0310122
273.0292083
272.9961096
269.6386296
278.5303484
273.0438819
272.9920402
272.9874239
272.9875533
272.9884011
272.992552
273.0011626
273.0090579
273.0103506
273.0103403
273.0109794
273.0136953
273.0156751
273.0196286
273.0248536
273.0279231
273.0263123
272.9958271
269.5334392
278.5602988
273.0432131
272.9926766
272.987459
272.9897176
272.9920889
272.9930447
272.9988051
273.0085217
273.012628
273.0106309
273.0078026
273.009845
273.0130679
273.0175467
273.0218478
273.0238194
273.02247
272.9952906
269.447641
278.5622197
273.0418458
272.993158
272.9876259
272.9921627
272.9956154
272.9933602
272.9968787
273.0078421
273.0139135
273.0096656
273.0033167
273.0049271
273.0095309
273.0147362
273.0181798
273.0191856
273.0181222
272.994755
269.297976
278.5531512
273.0403246
272.9936892
272.9882227
272.9941903
272.9982529
272.9934709
272.9954436
273.007001
273.0141914
273.0083276
272.9994458
273.0003272
273.0061375
273.0117701
273.0144838
273.014591
273.0137621
272.9940992
269.2228308
278.4700445
273.0382773
272.9944508
272.9890486
272.9952732
272.9995188
272.9929345
272.9939302
273.0055572
273.0129369
273.0062564
272.9967484
272.9972443
273.003525
273.0091931
273.0112691
273.0107136
273.0099629
272.9938673
269.1262373
278.3749659
273.0367373
272.9951442
272.9896468
272.9952725
272.9992932
272.991862
272.9922505
273.0038346
273.0111078
273.0059932
272.9962195
272.9964818
273.0024025
273.0076991
273.0092418
273.0082166
273.0073943
272.993922
269.1290851
278.1606492
273.0340827
272.9952274
272.9895142
272.9941219
272.99767
272.9901053
272.9902581
273.0013678
273.0083004
273.0042198
272.9964753
272.9971566
273.0027251
273.0074989
273.0088285
273.0074782
273.0064319
272.9946666
269.1700437
277.9557219
273.0315417
272.9943155
272.9882119
272.9921689
272.9949621
272.9877988
272.9882759
272.9986636
273.0054769
273.0029388
272.9966996
272.9986579
273.0043851
273.0088399
273.0101534
273.0086124
273.0070526
272.9959167
269.2907589
277.5900673
273.0265742
272.9922632
272.985801
272.9893695
272.9912141
272.9850711
272.9865362
272.9965764
273.0031377
273.0014445
272.997157
273.0006859
273.0070423
273.0114164
273.012932
273.011251
273.0090108
272.9974241
269.5025468
277.2819089
273.0220368
272.9895975
272.9828303
272.9860767
272.9868209
272.9820715
272.985158
272.9953118
273.0014485
273.0000246
272.9979936
273.0033456
273.0103435
273.0147509
273.0164486
273.0147115
273.0117336
272.9993974
269.7330123
276.7805445
273.0156303
272.987094
272.980079
272.9829695
272.9824102
272.979474
272.9844669
272.9950418
273.0003072
272.9992354
272.9995625
273.0064925
273.0137166
273.0179635
273.0196822
273.0180974
273.0144178
273.0012815
270.0985909
276.4026525
273.0111891
272.9855907
272.9783189
272.9802854
272.9787722
272.9783598
272.9847316
272.9948994
272.9992618
272.9992581
273.0021366
273.0098204
273.0167316
273.0202185
273.021826
273.0205956
273.0164661
273.0029861
270.3928255
275.8113556
273.0058731
272.9853541
272.9779095
272.978186
272.9762334
272.9781469
272.9855892
272.994451
272.9980006
272.9999899
273.0054458
273.0131098
273.0185436
273.0208831
273.0222801
273.0217046
273.0175186
273.003841
270.8594785
275.4050802
273.0031437
272.9860022
272.9790075
272.9771069
272.9749569
272.9793914
272.9871892
272.9938455
272.9964726
273.0006728
273.0085014
273.0153432
273.018711
273.0197473
273.0210492
273.0212702
273.0174136
273.0042594
271.1643945
274.7779963
273.000027
272.9874819
272.9814218
272.9775889
272.9753228
272.982243
272.9896283
272.9935291
272.9951792
273.001185
273.0101554
273.0158673
273.0170711
273.0171684
273.0185413
273.0194319
273.0160836
273.004088
271.6761302
274.3712799
272.9992281
272.9900535
272.9859965
272.9803696
272.9793409
272.9865904
272.9930925
272.9940155
272.9949391
273.0013091
273.0097519
273.0141121
273.013851
273.0135593
273.0149941
273.0161491
273.0134296
273.0036652
271.9603498
273.7321705
273.0127744
272.9996035
273.0266213
273.003747
273.0284585
273.0115266
273.0243639
273.0053118
273.0050608
273.0026358
273.0079419
273.0056156
273.0017937
272.9981535
272.9997116
273.0015858
273.0038632
272.9998354
272.4830715
272.2725446
276.2153716
273.9821369
277.8148644
275.4820738
278.262154
276.0004724
277.3548978
275.2667089
275.5804341
273.7570585
273.5563474
272.0801685
271.8230134
270.8360896
270.9621443
270.6751569
271.4326259
271.6443502
272.5573984
281.0509015
273.0920199
272.9978533
272.9940259
273.0104844
273.0050109
272.9953706
273.0122425
273.0325277
273.0282367
273.0146811
273.0106976
273.0166701
273.0224205
273.0264979
273.0312593
273.0338539
273.0316914
272.993837
267.6159027
281.0945404
273.0899265
272.9970899
272.9929847
273.001683
273.0009982
272.997998
273.0091765
273.0235316
273.0237399
273.014862
273.0101181
273.0136796
273.018671
273.0232521
273.027653
273.0294682
273.0270571
272.9895115
267.5157229
281.1985663
273.0906747
272.9998189
272.9944202
272.9969136
273.0014247
273.0052346
273.0078656
273.0155796
273.0208375
273.0185654
273.012562
273.0122597
273.0159899
273.0215348
273.0255691
273.0261408
273.0234616
272.9901656
267.3166815
281.2931584
273.0901395
273.0023093
272.9957171
272.9953666
273.0044475
273.0109614
273.0070628
273.0083894
273.017619
273.0211871
273.0138666
273.0089237
273.011499
273.0182882
273.0225018
273.0216896
273.0188367
272.9913403
267.0712602
281.4069409
273.0894332
273.0041252
272.9972649
272.9954859
273.0081294
273.0167835
273.0067305
273.0030572
273.0142457
273.021344
273.0125457
273.0042937
273.0059298
273.0144131
273.0187213
273.0167214
273.0137401
272.9931828
266.7864676
281.4437917
273.0877945
273.005147
272.9990978
272.9949702
273.009435
273.0203498
273.0059075
272.9986808
273.0109603
273.0177862
273.0093056
272.9983234
273.0001772
273.0100972
273.0146682
273.0116596
273.0087096
272.9951998
266.5515327
281.4311068
273.0865241
273.0059096
273.0008771
272.9932779
273.0081055
273.0212571
273.0047081
272.9951522
273.006772
272.7883809
273.0056052
272.9936342
272.9955072
273.0066269
273.010983
273.0072692
273.0043517
272.9971622
266.3701954
281.3046728
273.0844223
273.006688
273.002039
272.9908167
273.0051878
273.0202194
273.0035514
272.9920813
273.0091267
273.0148696
273.0044194
272.9906597
272.993023
273.0043964
273.0083671
273.0041062
273.001292
272.9987268
266.3054914
281.063501
273.0807817
273.0069381
273.0016769
272.9888366
273.0022627
273.0178467
273.0015788
272.9896801
273.0072366
273.0155032
273.0034526
272.9899636
272.993026
273.003976
273.0072654
273.002612
272.9998066
272.9996223
266.3745563
280.7158526
273.0749204
273.0059406
272.9996749
272.9878015
272.9999181
273.0138312
272.9985429
272.9880204
273.0013569
273.0134696
273.0014291
272.990783
272.994917
273.005178
273.0077204
273.0028157
272.999873
273.0005181
266.5656258
280.2096498
273.0655242
273.0036065
272.9960568
272.9873255
272.9978982
273.008163
272.9944985
272.9880673
273.0014786
273.0092765
273.00057
272.9930904
272.9982474
273.0076998
273.009595
273.0045992
273.0012295
273.0004468
266.9376828
279.6526438
273.0550738
273.0003375
272.9915283
272.9869774
272.9958052
273.0011835
272.9894597
272.9886849
273.002642
273.0085034
273.0012799
272.9960741
273.0023241
273.0109396
273.0123266
273.0073945
273.0033594
273.0005955
267.3722105
278.9211101
273.042681
272.9968843
272.9871847
272.9866711
272.9934365
272.993714
272.9841315
272.9894982
273.0046297
273.0088798
273.0018025
272.9990517
273.0065245
273.0142528
273.0151428
273.0104497
273.0057126
272.9994447
268.0106085
278.2331271
273.032554
272.9942919
272.9842333
272.9861588
272.9912026
272.9880939
272.9809342
272.9916577
273.0064935
273.0078922
273.0016089
273.0023123
273.0107837
273.0167281
273.0171448
273.0129008
273.0077999
272.9992402
268.5851167
277.3686057
273.0221207
272.9926616
272.9829472
272.9861562
272.9892945
272.983457
272.9814924
272.9946013
273.0063214
273.0060377
273.0027494
273.0066287
273.0139818
273.0175935
273.017688
273.0144103
273.0094915
272.9984551
269.3809465
276.647761
273.015295
272.9910029
272.9828428
272.9876474
272.9874001
272.981152
272.9862826
272.9985127
273.0041456
273.0031105
273.0045696
273.0110708
273.0157641
273.0166101
273.0166852
273.014837
273.0106674
272.9991417
269.9477668
275.7429179
273.0082031
272.9892937
272.9840568
272.9891646
272.9844089
272.9821188
272.9923693
273.0014339
273.0005369
272.9999697
273.0061823
273.0136986
273.0155942
273.0143669
273.0146181
273.0142685
273.0111063
272.9992832
270.7953611
275.0408686
273.0045215
272.988939
272.9871948
272.990847
272.9836845
272.9860663
272.9978525
273.0028418
272.9978965
272.997795
273.0063903
273.0136856
273.0134854
273.0112255
273.0118122
273.0124298
273.0102382
273.0003339
271.2910915
274.1373703
273.0226411
273.0053018
273.051471
273.0340126
273.0625574
273.0393321
273.0511147
273.0257337
273.0125527
273.0007734
273.0052855
273.0027783
272.9979499
272.9934122
272.9948331
272.9997285
273.0011035
272.9987992
272.1446651
272.6665687
277.0283792
275.3332807
279.5355267
277.7835391
280.3959468
278.6150921
279.1365728
277.1235554
276.4971304
274.370041
273.5255102
271.4519388
271.0423143
269.2100906
269.9212101
268.7455964
270.8977248
270.247252
272.8045103
283.5801851
273.1445019
273.0074408
272.9946623
273.0233343
273.0338848
272.9998632
272.9964696
273.0303035
273.0458376
273.0310931
273.0136907
273.0140867
273.0233867
273.0302681
273.0316774
273.0276591
273.0227101
272.9933677
264.8990164
283.6948084
273.1444139
273.0048314
272.997151
273.0085052
273.0189731
273.0056713
273.0026284
273.022386
273.0360119
273.0269858
273.0125791
273.0123729
273.0198066
273.0266505
273.0285577
273.0240336
273.0183923
272.9884995
264.7284204
283.9061099
273.1490367
273.0073172
273.0032708
272.9980724
273.0088992
273.0183979
273.0155979
273.0154144
273.0248479
273.0251452