/*--------------------------------*- C++ -*----------------------------------*\
| =========                 |                                                 |
| \\      /  F ield         | OpenFOAM: The Open Source CFD Toolbox           |
|  \\    /   O peration     | Version:  5.x                                   |
|   \\  /    A nd           | Web:      www.OpenFOAM.org                      |
|    \\/     M anipulation  |                                                 |
\*---------------------------------------------------------------------------*/
FoamFile
{
    version     2.0;
    format      ascii;
    class       volVectorField;
    location    "3.6";
    object      U;
}
// * * * * * * * * * * * * * * * * * * * * * * * * * * * * * * * * * * * * * //

dimensions      [0 1 -1 0 0 0 0];

internalField   nonuniform List<vector> 
30538
(
(0.004940785866 7.765091377e-05 0.001193635746)
(0.03647750979 -0.000963176485 0.002095147203)
(0.05250317249 -0.002222825149 -0.001136544056)
(0.06586794032 -0.004422937092 -0.005471362276)
(0.0422626953 -0.004889258421 -0.008866396832)
(0.02131117421 -0.005792962834 -0.009929516301)
(-0.01505744116 -0.004299435923 -0.004741511119)
(-0.02197792744 -0.004325346691 -0.001106639817)
(-0.04192034375 -0.002440378816 0.004241875323)
(-0.04117015762 -0.002464615973 0.005930293837)
(-0.05688267601 -0.0002464715966 0.009631383748)
(-0.05421836813 -0.0001410447417 0.0112558416)
(-0.05714565528 0.001850222807 0.01327377348)
(-0.03699974047 0.001772357864 0.01458410929)
(-0.02294471381 0.003198716458 0.01417816171)
(0.004245058363 0.003078059996 0.01505704442)
(0.01991662118 0.00342948221 0.01172230644)
(0.03423208026 0.002255611182 0.01082523076)
(0.0341958859 0.001544708041 0.004557630161)
(0.03263269998 0.0001539585437 0.002677735251)
(0.004380411049 2.081182429e-05 0.001125450669)
(0.03482535818 -0.002874518627 0.002043896622)
(0.05006364902 -0.007035298648 -0.001045775438)
(0.06398841211 -0.01296575349 -0.005176552551)
(0.04129176055 -0.01548403149 -0.0083765509)
(0.02171657036 -0.01726045092 -0.009386571778)
(-0.01402237115 -0.01496083733 -0.004373290713)
(-0.02064469829 -0.01321262176 -0.0007778953893)
(-0.04060096258 -0.01032446105 0.004571327024)
(-0.0395897066 -0.007401273693 0.006253285339)
(-0.05525322742 -0.003901201624 0.009686858964)
(-0.05275119436 -2.275126236e-05 0.01128396416)
(-0.05580560518 0.00328073732 0.01324817413)
(-0.03604483767 0.00598412111 0.01477279618)
(-0.02201870609 0.008360936975 0.01425726545)
(0.004405843361 0.009670406069 0.01509820654)
(0.0193283862 0.009545746815 0.01158443283)
(0.03289463887 0.006953137122 0.01077341733)
(0.03274494876 0.004261274794 0.004530224197)
(0.03134358523 0.000724632307 0.00275404114)
(0.003118076734 0.0001961642904 0.001023987208)
(0.03145668607 -0.004816539185 0.001908180716)
(0.04542865827 -0.01050981211 -0.000847281657)
(0.05990952433 -0.0203093406 -0.004635204492)
(0.03923154109 -0.02372771011 -0.007368068285)
(0.02166915227 -0.02782288608 -0.008376173579)
(-0.01221201275 -0.02348481689 -0.003518762003)
(-0.01870134751 -0.02220568984 -0.0001752786881)
(-0.0378376652 -0.01558378781 0.005335605903)
(-0.03657719414 -0.01216500641 0.006741862829)
(-0.05171331057 -0.003729337841 0.009876702095)
(-0.04915641517 0.001047328986 0.01116791082)
(-0.05293202994 0.008781091779 0.01330517541)
(-0.03342536366 0.01171219731 0.01487237482)
(-0.02035164215 0.01666968019 0.01447576527)
(0.005087828861 0.01724801639 0.01497230104)
(0.01801390679 0.01725374912 0.01139865697)
(0.03047924685 0.01210985622 0.01053923895)
(0.02986810777 0.007744817358 0.004546389816)
(0.02885319149 0.001340097609 0.00278859745)
(0.001375733115 0.0001355149822 0.0008104204333)
(0.02719202269 -0.006913420535 0.001681398786)
(0.03921823597 -0.0137872834 -0.0007807320316)
(0.05467886956 -0.0263868005 -0.004014146268)
(0.03599936272 -0.03137252104 -0.006283136902)
(0.02186363927 -0.03725527536 -0.007116839205)
(-0.0100855056 -0.03327401318 -0.002621514664)
(-0.01506998043 -0.031215106 0.0006640665105)
(-0.03354067681 -0.02323111524 0.005964925676)
(-0.03114705549 -0.01667332057 0.007309149146)
(-0.04597283544 -0.005887294544 0.009623869606)
(-0.04393882986 0.002963688702 0.01081825251)
(-0.04830206725 0.01298526741 0.0126242191)
(-0.03047983565 0.01864593956 0.01462363758)
(-0.01812296965 0.02464272527 0.01392146908)
(0.00481974193 0.02561957148 0.01447478883)
(0.01570474724 0.02468213478 0.01056783896)
(0.02613826341 0.0177168293 0.01006092263)
(0.0252538514 0.01122739144 0.004227008198)
(0.02455399484 0.002322582753 0.002870772578)
(-0.00139647005 0.0002563606991 0.0006118569549)
(0.02153264458 -0.009389225502 0.001380213059)
(0.03178548224 -0.01604392914 -0.0006067839247)
(0.04751113759 -0.03143904745 -0.003316745923)
(0.03157832686 -0.03661178333 -0.004905632494)
(0.02030579495 -0.04527669018 -0.005699295969)
(-0.00797196693 -0.04056871009 -0.001264537056)
(-0.01161053345 -0.03945974221 0.001577984912)
(-0.02758788429 -0.0280436796 0.006953494204)
(-0.024272938 -0.02050577762 0.007641782083)
(-0.0378948632 -0.004900531511 0.009333328619)
(-0.03585806264 0.005309536701 0.01004245664)
(-0.04188817378 0.01967075849 0.01195532057)
(-0.02520435413 0.02603573479 0.01382634912)
(-0.0154424948 0.03423131135 0.01327958979)
(0.005114453587 0.03415344178 0.01343152444)
(0.01244056904 0.03273535247 0.009647653033)
(0.02092783929 0.0234393626 0.009173400024)
(0.01913244942 0.0150956779 0.003895696457)
(0.01884085568 0.003412531806 0.002738049631)
(-0.00482590881 5.560302707e-05 0.0003125272343)
(0.01559203525 -0.01220432342 0.001069204043)
(0.02376192007 -0.0185108065 -0.000654824863)
(0.04017319727 -0.03590526049 -0.002687008016)
(0.0262449394 -0.04161804849 -0.003869622609)
(0.01905985936 -0.05215661094 -0.004314975043)
(-0.005992523181 -0.04773285144 -0.0002673532893)
(-0.006220985901 -0.04644644224 0.002560142288)
(-0.02016865333 -0.03323356068 0.007336930581)
(-0.01475989758 -0.02345068511 0.007832539528)
(-0.02777431014 -0.005488864972 0.008476524211)
(-0.0266245339 0.007336842492 0.009048303961)
(-0.0336960479 0.02415498069 0.01030637952)
(-0.0202139768 0.03263571067 0.01252397487)
(-0.01241551715 0.04201345686 0.01145151487)
(0.00376554879 0.04171658033 0.01189581636)
(0.008144662526 0.03943793781 0.007869577765)
(0.0136199468 0.02862346853 0.008011470726)
(0.01124070974 0.01856049433 0.003065468082)
(0.01101238853 0.00454302125 0.002635270783)
(-0.009757156789 6.563882256e-05 0.0001282005804)
(0.008340117058 -0.01536726443 0.0008080942784)
(0.01516196305 -0.02036623028 -0.0004949182498)
(0.03120193482 -0.04000236114 -0.00205972423)
(0.02011066275 -0.04510882344 -0.002553201538)
(0.01599769792 -0.05774653819 -0.002948062025)
(-0.003936786457 -0.0522642341 0.001205884479)
(-0.001357105755 -0.05144568023 0.003394701525)
(-0.01134630643 -0.03535338501 0.007944586525)
(-0.004649390678 -0.02523031215 0.007559873167)
(-0.01618092873 -0.004627720522 0.007657953774)
(-0.01496273972 0.00845633666 0.007762042171)
(-0.02405920689 0.02781210782 0.009024495378)
(-0.01262196334 0.03715539583 0.01080868401)
(-0.009060160567 0.04792096825 0.009865989681)
(0.003308630317 0.04707249513 0.009987352082)
(0.003200712589 0.0443825306 0.006361117765)
(0.006114810235 0.03257917936 0.006567308802)
(0.002238709784 0.02135393663 0.002390270636)
(0.002057015728 0.005560573404 0.002278809017)
(-0.01542769377 -0.0001106331074 -0.0001014384981)
(0.001084918941 -0.01829868757 0.0006473643327)
(0.006491131127 -0.02244773017 -0.0005506586111)
(0.02272066138 -0.04370648573 -0.00151501186)
(0.01372647141 -0.04830734251 -0.001736833385)
(0.01401039666 -0.06193691987 -0.001678026668)
(-0.001537802521 -0.05523816579 0.002082876539)
(0.005739113208 -0.05411566944 0.004173254912)
(-0.001646805959 -0.03587747895 0.007715451504)
(0.006962573518 -0.02576919777 0.007156366198)
(-0.004008039297 -0.003982149484 0.006603666305)
(-0.003756275993 0.00844332847 0.006626573835)
(-0.01346426117 0.02910401693 0.00715399078)
(-0.00604159963 0.038850117 0.009042811748)
(-0.005435446472 0.05042244582 0.007481598841)
(0.00127484125 0.04923392415 0.008025380684)
(-0.002094798224 0.04659898241 0.004363123806)
(-0.002725958233 0.03442678723 0.005197010078)
(-0.007749872715 0.02312496089 0.001363414623)
(-0.008446054525 0.006166553694 0.00204905562)
(-0.02253639122 0.0002350511912 -0.0001626430642)
(-0.007522602088 -0.02068732133 0.000592394283)
(-0.002641595079 -0.02339671043 -0.0003105362792)
(0.01296586733 -0.04648800291 -0.000949262758)
(0.007248414475 -0.04962216518 -0.0005504035695)
(0.01111410768 -0.06413715754 -0.0004156213397)
(0.001593878602 -0.05527353762 0.00345340495)
(0.01234014298 -0.05392707936 0.004715985661)
(0.008680429613 -0.03428872453 0.007806294534)
(0.01789365109 -0.0248639088 0.006394185233)
(0.007958846019 -0.003649732089 0.005886890134)
(0.008362153325 0.007698987911 0.005493794112)
(-0.002621392116 0.02797332054 0.00618567135)
(0.002406741772 0.03770728139 0.007358379738)
(-0.001744087014 0.0490894936 0.006042907441)
(0.0006213903708 0.04783649256 0.006260775762)
(-0.0072730233 0.04541693363 0.003213086343)
(-0.01055543917 0.03383100852 0.003964056333)
(-0.01765272293 0.02319745614 0.0007819174478)
(-0.01905671518 0.006414129593 0.001614802349)
(-0.02961610887 0.0006607693604 -0.0002476784924)
(-0.01570572284 -0.02193595386 0.0006300079108)
(-0.01157731191 -0.02351196533 -0.0002447553224)
(0.004235480612 -0.04754446295 -0.000408103754)
(0.00127311288 -0.04914930404 0.0001663430824)
(0.01003927039 -0.06378332091 0.0007615730193)
(0.005672144489 -0.05267369301 0.004038192465)
(0.02058645307 -0.05101272151 0.005097614412)
(0.01888693106 -0.03044698409 0.00702885166)
(0.02861137207 -0.02289545669 0.005642500407)
(0.01896239024 -0.002448905463 0.004735189323)
(0.01853489574 0.006355452504 0.004607694528)
(0.007695942979 0.02604239796 0.004759742238)
(0.008843158175 0.03407701878 0.006009152503)
(0.001710979329 0.04522625865 0.004267245989)
(-0.001299992165 0.0430520807 0.004940915542)
(-0.01200711913 0.04151355659 0.001965979738)
(-0.01851216367 0.03057744711 0.003204296172)
(-0.02706249401 0.02181566894 6.268937238e-05)
(-0.02975963597 0.005931340166 0.001405405652)
(-0.03726266524 0.001646055481 -0.0001660449231)
(-0.02470791836 -0.02201572153 0.0007800429584)
(-0.02056773356 -0.0215486389 0.0001568028128)
(-0.005104315764 -0.04605744304 0.0002569645345)
(-0.004214270579 -0.04523802141 0.001343595039)
(0.008644542249 -0.06003254226 0.001973663005)
(0.01060388666 -0.04678906749 0.005159322037)
(0.02806857088 -0.04543389954 0.005241881307)
(0.02853896619 -0.02550009567 0.006796453395)
(0.03766331633 -0.02001553379 0.004716324041)
(0.02859809174 -0.002199692021 0.004207402559)
(0.02843921546 0.004523833813 0.003790282757)
(0.01693139076 0.02186906594 0.00433175015)
(0.01592958639 0.02823463752 0.004942745781)
(0.004598227232 0.03779328316 0.003618029225)
(-0.001985446809 0.03511596395 0.004032235866)
(-0.01610150947 0.03400937389 0.001791449103)
(-0.02455451737 0.02495916184 0.002776365262)
(-0.03501698919 0.01840046254 1.664292994e-06)
(-0.03901935871 0.005048515075 0.001047108262)
(-0.04367848827 0.002688392806 -7.532154849e-05)
(-0.03221132922 -0.02068372054 0.0009797691735)
(-0.02839570858 -0.01788768713 0.0004822106107)
(-0.01246969535 -0.04148353522 0.0009608289011)
(-0.008598028451 -0.03813917011 0.002100262882)
(0.008952969637 -0.05232868562 0.003090380597)
(0.01596466395 -0.03767465515 0.005434948869)
(0.03565058588 -0.03780803348 0.005202805039)
(0.03682114997 -0.01892574369 0.005688132569)
(0.0450628695 -0.01690487885 0.003841314577)
(0.03627794136 -0.0009946802866 0.003116150982)
(0.03548922247 0.002082809282 0.003187359853)
(0.02442447787 0.01764004748 0.003340525293)
(0.02006459552 0.02052964515 0.004165567654)
(0.006581843309 0.02874381941 0.00263896494)
(-0.003953857711 0.0245082403 0.003569234676)
(-0.01918655244 0.02450636459 0.001524717866)
(-0.02960315905 0.01709651424 0.002786626326)
(-0.04108017841 0.01394590013 -0.0001645963566)
(-0.04664364418 0.003395700404 0.0009637135741)
(-0.04963603097 0.004248349945 0.0001337680434)
(-0.03936886146 -0.01808857785 0.001380153509)
(-0.03511076037 -0.01181334186 0.001179680304)
(-0.01939788144 -0.03371745918 0.00186342222)
(-0.01188493439 -0.02721386928 0.003246856106)
(0.008981823526 -0.04072479877 0.004175814378)
(0.02083494512 -0.02581924747 0.006160513462)
(0.04132416665 -0.02853790649 0.00513277838)
(0.04327807737 -0.01243331973 0.005276297509)
(0.05032704438 -0.0139493644 0.003084717975)
(0.04199573904 -0.001480733797 0.002893998712)
(0.04155631327 -0.001207519729 0.002760120425)
(0.02994540715 0.01096268447 0.003236229992)
(0.02375806461 0.01110744421 0.00355655441)
(0.007425026942 0.01688758458 0.002609145821)
(-0.004953299481 0.01175690059 0.003410215286)
(-0.02133277367 0.01245430437 0.002205320636)
(-0.03205108739 0.007516258327 0.002999798298)
(-0.04464154601 0.007821720322 0.0002340247222)
(-0.05155066202 0.001522777056 0.0007295320956)
(-0.05312280108 0.00594931545 0.0004072500019)
(-0.04367642563 -0.01396905434 0.001807692078)
(-0.0393144039 -0.003797621954 0.001914498066)
(-0.02335036519 -0.02292413595 0.002712959875)
(-0.01356550139 -0.01298219055 0.003953814279)
(0.009930918619 -0.02587003017 0.004960545078)
(0.02454408448 -0.01155283074 0.006127477901)
(0.04511567677 -0.01811820452 0.004922682127)
(0.04710515126 -0.005198947543 0.004250748997)
(0.05280056095 -0.01140815342 0.002501576115)
(0.04526912369 -0.001592894589 0.002253618882)
(0.04424083063 -0.005518551442 0.002557653892)
(0.03310763312 0.0038692675 0.002558672405)
(0.02424956788 0.0001937671991 0.003043104319)
(0.007060119846 0.004387152596 0.002048885807)
(-0.007047613392 -0.00209932793 0.003462860544)
(-0.02216647031 0.0002099968558 0.002560422873)
(-0.03288525428 -0.00282068947 0.003465526544)
(-0.04524402756 0.001409781447 0.0003917681466)
(-0.05349445848 -0.0009683099997 0.0007487138987)
(-0.05497380495 0.008397607894 0.0006757437836)
(-0.04636247688 -0.008167345685 0.002385097012)
(-0.0413492935 0.007070803679 0.002759838741)
(-0.02590735589 -0.008710830652 0.003628683706)
(-0.01398899372 0.004787823888 0.004702100699)
(0.009975863831 -0.007919242642 0.005575051555)
(0.02628388215 0.004644637489 0.006429186567)
(0.04582615822 -0.006303847793 0.0048281515)
(0.04800912635 0.001880493084 0.004040991199)
(0.05288025547 -0.008735554059 0.002310798415)
(0.04615931162 -0.003008460814 0.002556066889)
(0.04538611677 -0.01061555667 0.002645833696)
(0.03396923209 -0.005406944177 0.002730197354)
(0.02413185218 -0.01184494726 0.002685721369)
(0.005828816065 -0.00966270708 0.002254156849)
(-0.007862371192 -0.01594286294 0.003611605577)
(-0.021819721 -0.01222321453 0.003481977338)
(-0.03119437069 -0.01282817867 0.003831816041)
(-0.04324261532 -0.005494038915 0.0009394700872)
(-0.0521043249 -0.003490860387 0.0005712563661)
(-0.05263490942 0.01123050105 0.0009495313744)
(-0.04472347725 -0.0008082035924 0.00267504983)
(-0.03963469311 0.0197256097 0.003336275624)
(-0.02500557222 0.007703468844 0.004060035945)
(-0.01303411278 0.02429576886 0.004834552405)
(0.009815726167 0.01145090634 0.005602264332)
(0.02566860655 0.0221753096 0.006029245621)
(0.04318930024 0.006356703464 0.004491553924)
(0.04539098287 0.01023092093 0.003404149972)
(0.04936026291 -0.005582453093 0.002183209214)
(0.04395696677 -0.003576708995 0.002425617927)
(0.04252737409 -0.01581233663 0.002736652377)
(0.03223739785 -0.01406393936 0.002286426519)
(0.02126143165 -0.02384999045 0.002298211574)
(0.004191128763 -0.02235158105 0.001838662735)
(-0.008821447718 -0.0284663213 0.003641048001)
(-0.01994261524 -0.02258344917 0.003661164289)
(-0.02811517826 -0.021766013 0.004089993254)
(-0.0385331441 -0.01140810941 0.001025911877)
(-0.0474019465 -0.006158168407 0.0006282732711)
(-0.04728873551 0.01449686282 0.001007521511)
(-0.0404842247 0.007367453314 0.002815167224)
(-0.03528383677 0.03318994289 0.003448822312)
(-0.02272602613 0.02469299841 0.004168400775)
(-0.01136430205 0.04388216755 0.004605098713)
(0.008467082483 0.03104614492 0.00529394419)
(0.02267509351 0.03965891144 0.005568789003)
(0.03742428321 0.01977689734 0.004178201679)
(0.03959066919 0.01915290799 0.003256206892)
(0.04314330711 -0.001199992468 0.002284511953)
(0.03894680689 -0.003789259444 0.002844335705)
(0.03797568471 -0.02029071569 0.002887639386)
(0.02830476336 -0.02268540793 0.002464821874)
(0.01829924415 -0.03495111975 0.002054611264)
(0.002590266521 -0.0341255363 0.002024807588)
(-0.008001342272 -0.03896429443 0.003528132512)
(-0.01706657958 -0.03145331427 0.004003828223)
(-0.02328691328 -0.02896009549 0.003950514685)
(-0.03208267339 -0.01656259143 0.001355993416)
(-0.03997209326 -0.008324419063 0.0004596389776)
(-0.0368877943 0.01741726107 0.000989303215)
(-0.03165068617 0.01512775781 0.002391469718)
(-0.02735223901 0.04552577439 0.003107170529)
(-0.01749304496 0.04025555533 0.003513846275)
(-0.008562408666 0.06155014479 0.003838587079)
(0.00682496283 0.04874286032 0.004255758772)
(0.01770195454 0.05551413467 0.004457676391)
(0.02873930666 0.0322866577 0.003325004334)
(0.03059746553 0.0280780393 0.002529709161)
(0.03316998927 0.00355200457 0.001944682576)
(0.03048214086 -0.002733339793 0.002347783381)
(0.02919198678 -0.02385964152 0.002468902733)
(0.02190153032 -0.02942192471 0.001824549047)
(0.01319780429 -0.04407190086 0.001567651026)
(0.001373701299 -0.04304044282 0.001457325592)
(-0.006919579906 -0.04690831825 0.002970234033)
(-0.01286025143 -0.03773559869 0.003265415264)
(-0.01759280677 -0.03435473292 0.003385713754)
(-0.02381137443 -0.02020955887 0.001074040638)
(-0.03010628351 -0.01011381872 0.0004725041189)
(-0.02407736521 0.01968726526 0.0006333534298)
(-0.02083636004 0.02074391244 0.001759904362)
(-0.01758691512 0.05472221074 0.002120233302)
(-0.01152242439 0.0508295463 0.002531239259)
(-0.005422039027 0.07411408455 0.002563548623)
(0.0041977533 0.06032741456 0.002969152381)
(0.01108462702 0.06663088288 0.00302519698)
(0.01814361323 0.04087714373 0.00237717006)
(0.01939217736 0.03468009161 0.00185918776)
(0.02144447245 0.007327799058 0.001509516168)
(0.01960237465 -0.001970494187 0.001861216605)
(0.01911006443 -0.02600654968 0.001856659403)
(0.01400071051 -0.03440617069 0.001503744344)
(0.008648455906 -0.05023707015 0.001129004122)
(0.0005786009389 -0.04965303339 0.00128017137)
(-0.004235850704 -0.05214516557 0.002096658409)
(-0.008145832966 -0.04243808628 0.002519996577)
(-0.0108407698 -0.03779742545 0.002309928738)
(-0.01476662688 -0.02275402587 0.0009572263103)
(-0.01877227519 -0.01116380035 0.0002237345029)
(-0.008118395734 0.02089667883 0.0002975698317)
(-0.006918012789 0.02505928841 0.0005882511702)
(-0.005954140176 0.06071819677 0.0008272660707)
(-0.003716369582 0.0592213995 0.0007996526879)
(-0.001794655252 0.08287715611 0.0009062170123)
(0.001563373707 0.06980732872 0.0009224568728)
(0.00389820578 0.07474862519 0.001008395203)
(0.006119007361 0.04815687579 0.0007288006824)
(0.006819599833 0.0398903836 0.0005890924912)
(0.007253244889 0.01036782842 0.0004884730253)
(0.006944285812 -0.001053468049 0.0005805103796)
(0.006365637021 -0.02736146119 0.0006277696737)
(0.004878735484 -0.03688531638 0.0003696148927)
(0.002519062165 -0.05376993963 0.0003365265474)
(7.471693414e-05 -0.0523092222 0.0002408317555)
(-0.001837270563 -0.05448072722 0.0007339404297)
(-0.002799177161 -0.04376741173 0.0007261292615)
(-0.003815239811 -0.03928530994 0.0008820008963)
(-0.004991871589 -0.02354441384 0.000216888027)
(-0.006372326363 -0.01181375162 0.000166271727)
(0.009619743313 -5.105996582e-05 -0.002458194152)
(0.03323400222 -0.001060874408 0.007540805529)
(0.0425374227 -0.002059026253 -0.01121000143)
(0.05553888118 -0.003867805104 -0.01269803144)
(0.03630022866 -0.003965151104 -0.03146739216)
(0.02679947279 -0.004767816129 -0.02419086465)
(-0.003317518957 -0.003600113525 -0.02202457662)
(-0.009934459832 -0.003701254596 -0.003323253962)
(-0.03251405974 -0.001811644933 0.001878427424)
(-0.03386847562 -0.001847472563 0.01306040213)
(-0.04976819495 -0.0001508619963 0.0162575316)
(-0.0493019222 -8.846705306e-05 0.02539511837)
(-0.05269858407 0.001803898527 0.02976983249)
(-0.03576172281 0.00212931371 0.03390212879)
(-0.02229777186 0.003344130456 0.03603180348)
(0.0009628896595 0.003154251813 0.03438906605)
(0.01419748313 0.003161556146 0.03275776685)
(0.02439466079 0.002150745127 0.02272564018)
(0.02337385231 0.001494349089 0.01544080763)
(0.02257143797 0.0002985102653 0.001644664037)
(0.008891591349 -0.0002991940971 -0.002665396068)
(0.03178985042 -0.003231372959 0.007360581549)
(0.04055548292 -0.006510348699 -0.0110207303)
(0.05418654292 -0.01140145452 -0.01202761555)
(0.03566181452 -0.0126708545 -0.03038416946)
(0.02704938169 -0.01432976377 -0.02299495952)
(-0.002560331454 -0.01265219574 -0.02107557411)
(-0.008649313384 -0.0114495043 -0.002964105863)
(-0.03119304172 -0.008246430118 0.002778493089)
(-0.0326670238 -0.005855108008 0.01362435468)
(-0.04853638112 -0.003454678742 0.01711724963)
(-0.04792943232 -0.0001910586229 0.02537689023)
(-0.05114344437 0.003348193931 0.03034113502)
(-0.03467037413 0.006527105345 0.03417618063)
(-0.02156643582 0.008916611512 0.03660609834)
(0.0008312439332 0.009502829813 0.03429192195)
(0.01348262339 0.008922130494 0.03258637773)
(0.02320972007 0.006400820973 0.02241680942)
(0.02209039208 0.004252091416 0.01551591315)
(0.02122198966 0.0009341343574 0.001758352047)
(0.007292402216 -0.0004009146863 -0.003032722451)
(0.02881860207 -0.005515473905 0.006834178403)
(0.03681022293 -0.01003942757 -0.01087309194)
(0.05117856682 -0.01813525871 -0.01097841959)
(0.0342351519 -0.01978463642 -0.02870266554)
(0.02680469945 -0.02352175186 -0.02079723822)
(-0.001283409553 -0.02017341294 -0.02017998454)
(-0.006825896068 -0.01947616853 -0.002067376505)
(-0.0285737654 -0.01295209074 0.002660680723)
(-0.03043995442 -0.01017659755 0.01475714866)
(-0.04580472782 -0.003882841567 0.01596730239)
(-0.04449825027 0.0001448991081 0.0251392968)
(-0.04797010819 0.007596322949 0.02902627553)
(-0.03183794513 0.01141930948 0.03426538763)
(-0.02019770745 0.01601495732 0.03607234412)
(0.0009735555738 0.01604823111 0.03379170426)
(0.01202191953 0.01530484185 0.03142415119)
(0.02107461548 0.01073301762 0.02171543163)
(0.0195673684 0.007181530655 0.01525129246)
(0.01867717355 0.001558216964 0.002020452528)
(0.004938788891 -0.0006473313706 -0.003614051064)
(0.0249268085 -0.0079281471 0.006151221522)
(0.03172270966 -0.01336158751 -0.01076206659)
(0.0473042715 -0.0239176867 -0.009610897923)
(0.03187489314 -0.02671825148 -0.0261112692)
(0.0267528323 -0.03216578595 -0.01795397321)
(0.0002895881495 -0.02899265372 -0.01768293158)
(-0.003560705327 -0.02788029912 -0.0009586643338)
(-0.02464337086 -0.02017093781 0.005054624046)
(-0.02620913325 -0.01498046384 0.0155259265)
(-0.04128905814 -0.006948354316 0.01745378345)
(-0.0398366354 0.0008060337056 0.02387082603)
(-0.04320208069 0.01041037278 0.02917275683)
(-0.02872585914 0.01664781151 0.03324934583)
(-0.01829932632 0.02234646978 0.03599945421)
(0.0003356258409 0.02267288246 0.03228301569)
(0.009735723391 0.02132527451 0.03010129727)
(0.01743316769 0.01508662256 0.02027395848)
(0.01570224714 0.01000072303 0.01496147296)
(0.01471902175 0.002219110622 0.002049216142)
(0.001475201963 -0.0006907907373 -0.004222638976)
(0.01976914528 -0.01055943784 0.005161061022)
(0.02561106005 -0.0158335276 -0.01094968764)
(0.04174758508 -0.02894502971 -0.008375605842)
(0.02843707996 -0.03204542103 -0.02402856525)
(0.02517602852 -0.03994906636 -0.01486508115)
(0.001742705218 -0.03609045723 -0.01643350232)
(-0.000604086362 -0.03585502974 0.000753430831)
(-0.01947391462 -0.02544595165 0.004405699975)
(-0.02105776326 -0.01952635746 0.0163562045)
(-0.03468821012 -0.00709037621 0.01390213275)
(-0.0322644025 0.001929510964 0.02200582497)
(-0.03681201879 0.01525732842 0.0248866078)
(-0.02341278832 0.02203798681 0.03114502902)
(-0.01594400493 0.0295178081 0.03272509186)
(0.0002541357543 0.02922641888 0.02965058222)
(0.00667207762 0.02757550592 0.02684771111)
(0.01302788131 0.01950731612 0.01814763507)
(0.01059031122 0.01289358487 0.01371626503)
(0.009657595208 0.002954431293 0.002079145439)
(-0.002790250503 -0.0008669949587 -0.004848528683)
(0.01416202563 -0.01329301217 0.004406672161)
(0.01884116113 -0.01832264655 -0.01084374634)
(0.03585621912 -0.03353478016 -0.006989793519)
(0.02412982732 -0.03717315312 -0.02109216326)
(0.02388036176 -0.04693822966 -0.01178459712)
(0.003192047535 -0.04302903972 -0.01290363839)
(0.003954303856 -0.04300224458 0.002489040341)
(-0.01311376856 -0.03134922375 0.007616335112)
(-0.01321116142 -0.02362178202 0.01622213069)
(-0.0261569121 -0.008673566287 0.01528832797)
(-0.02408483005 0.002992177193 0.01892210332)
(-0.02903578106 0.01857740974 0.02361298118)
(-0.01866711259 0.02689226642 0.02752466191)
(-0.01322837593 0.03550349099 0.03027949684)
(-0.001034360868 0.03513468325 0.02570225359)
(0.002876652867 0.03315836678 0.02373362449)
(0.007005711338 0.02363568095 0.01519669955)
(0.004119461754 0.01569966478 0.01244685882)
(0.003113350979 0.003657649606 0.001640022253)
(-0.008338366918 -0.0007271817019 -0.00527600697)
(0.0073727023 -0.0161647886 0.003749897566)
(0.01142399814 -0.02019093739 -0.01084584204)
(0.0284364075 -0.03777823002 -0.005772127913)
(0.01899540336 -0.04107381967 -0.01913002113)
(0.02104097468 -0.05274726499 -0.008757173355)
(0.004542099752 -0.04780058037 -0.01140147025)
(0.007651443513 -0.04838972167 0.004565478188)
(-0.005779756014 -0.03462356935 0.00638685566)
(-0.005011897447 -0.0265301782 0.01600362835)
(-0.01591607309 -0.008170952927 0.01012593468)
(-0.01304948172 0.00384027862 0.01596046557)
(-0.01997532886 0.02181989411 0.01753202655)
(-0.01148362622 0.03052875798 0.023343805)
(-0.01013404614 0.04036750793 0.02447236487)
(-0.00139836984 0.03968139263 0.02105105626)
(-0.0014451955 0.03769012304 0.01890126458)
(0.0006335114002 0.02719628427 0.01192742231)
(-0.003427325802 0.01811623335 0.01026087306)
(-0.004425593541 0.004432435083 0.001244367498)
(-0.01455160646 -0.0006712790962 -0.00547958001)
(0.0003498054843 -0.01870206871 0.00370717942)
(0.003694540948 -0.0221204996 -0.01006854252)
(0.02112393756 -0.04159424703 -0.004158218147)
(0.0135817785 -0.04453221573 -0.01583452401)
(0.01913966546 -0.05715954119 -0.005608193131)
(0.006282567817 -0.05099716842 -0.00709650511)
(0.01327757166 -0.05162616521 0.006370721633)
(0.002333818523 -0.03612536001 0.009473934441)
(0.005491399411 -0.0279998436 0.01470450422)
(-0.004724302755 -0.00733765747 0.01167565515)
(-0.002941563675 0.004115584969 0.01261535522)
(-0.01022537947 0.02370118021 0.01628183005)
(-0.005595886473 0.03227738781 0.01866742017)
(-0.006777040611 0.0431454086 0.02087509402)
(-0.002924979087 0.0421207845 0.0160754945)
(-0.005947042668 0.04058812911 0.01521731025)
(-0.006890994718 0.029444292 0.008529684202)
(-0.01188614463 0.02005957581 0.008469901915)
(-0.01321154027 0.004890571177 0.0004728746132)
(-0.0218414483 -5.099698924e-05 -0.005426665164)
(-0.007843512812 -0.02071090335 0.00381869099)
(-0.004618277422 -0.02284168131 -0.009316638189)
(0.01263141488 -0.0443800875 -0.002506547331)
(0.008025250058 -0.0460431969 -0.0133939739)
(0.01649242447 -0.05954654398 -0.002318621008)
(0.008460118774 -0.05159053173 -0.005083290433)
(0.01818048198 -0.05219106089 0.008256512478)
(0.01091786576 -0.03557728108 0.007961454196)
(0.01533767144 -0.02776277925 0.01365649064)
(0.006747461323 -0.007187702692 0.007717930328)
(0.008826312344 0.003841369564 0.01040053889)
(-0.0001191522923 0.02341161363 0.01144111434)
(0.002218564471 0.03191892391 0.01478662552)
(-0.003198133255 0.04296203836 0.01534861216)
(-0.00320095457 0.04194692187 0.01177315549)
(-0.01041183258 0.04083635901 0.01094101373)
(-0.01394497741 0.0300089206 0.005710522646)
(-0.02071976095 0.02071163704 0.006287756917)
(-0.02242887299 0.005177489662 -9.985263116e-05)
(-0.02900893891 0.0006478549755 -0.005099874902)
(-0.01581403007 -0.02156843114 0.004369801948)
(-0.01289144923 -0.022649051 -0.007616753937)
(0.004767650979 -0.0452439166 -0.0002582536688)
(0.002888254229 -0.0455782244 -0.009165279886)
(0.01524153689 -0.05927837396 0.001314786063)
(0.01148120383 -0.04945357831 -0.0004433648173)
(0.02461321542 -0.0500257426 0.009751211293)
(0.01960472311 -0.03235236884 0.009947134994)
(0.0255533638 -0.02610146502 0.01200463498)
(0.01757442756 -0.005637948053 0.008599137347)
(0.01861827618 0.003097357567 0.008196930862)
(0.009580008379 0.02250417414 0.01093197438)
(0.008184721403 0.02945632304 0.01140873628)
(0.0002927639211 0.04059492428 0.01281169557)
(-0.00441972674 0.03879006451 0.008298146522)
(-0.01439227066 0.03878972753 0.008633470931)
(-0.02118547639 0.02828763948 0.003556391954)
(-0.02939240058 0.0203191003 0.004899812857)
(-0.03185607276 0.004839155517 -0.0008103660092)
(-0.03637241569 0.001970363754 -0.00463460648)
(-0.02436885656 -0.02133617382 0.004855621142)
(-0.02120764842 -0.02018767494 -0.006140599493)
(-0.00353099919 -0.0434418925 0.002031316551)
(-0.001876897081 -0.04157095183 -0.005879304397)
(0.01377422481 -0.05562398553 0.005014181289)
(0.01499259676 -0.04413859404 0.001792209832)
(0.03028501697 -0.04523205223 0.01092297811)
(0.02782426945 -0.02803418437 0.00810993324)
(0.03420803003 -0.0234488245 0.01050396679)
(0.02735877752 -0.005276129179 0.005592718101)
(0.02864425506 0.001808509734 0.006872257148)
(0.01847762757 0.01916291205 0.007881114906)
(0.01497585785 0.02470207679 0.009133927464)
(0.003387887116 0.03467954529 0.009336957357)
(-0.004468575573 0.03248335765 0.006147747705)
(-0.0178422395 0.03314852962 0.006538483917)
(-0.02706272571 0.02414058469 0.002453744882)
(-0.03726196678 0.01795786517 0.003626688642)
(-0.04052948546 0.004197599972 -0.001218471695)
(-0.04241960372 0.003258803934 -0.003866583899)
(-0.03154080444 -0.01952592816 0.005622322661)
(-0.02837092406 -0.0159521378 -0.003560433572)
(-0.01030794993 -0.03841191834 0.004872450149)
(-0.005712520893 -0.03450854939 -0.0008637125609)
(0.01343791677 -0.04814131365 0.008925610618)