/*--------------------------------*- C++ -*----------------------------------*\
| =========                 |                                                 |
| \\      /  F ield         | OpenFOAM: The Open Source CFD Toolbox           |
|  \\    /   O peration     | Version:  5.x                                   |
|   \\  /    A nd           | Web:      www.OpenFOAM.org                      |
|    \\/     M anipulation  |                                                 |
\*---------------------------------------------------------------------------*/
FoamFile
{
    version     2.0;
    format      ascii;
    class       volScalarField;
    location    "0";
    object      thickness;
}
// * * * * * * * * * * * * * * * * * * * * * * * * * * * * * * * * * * * * * //

dimensions      [0 0 0 0 0 0 0];

internalField   uniform 0;

boundaryField
{
    allBoundary
    {
        type            fixedValue;
        value           uniform 0;
    }
    allboundary2
    {
        type            fixedValue;
        value           uniform 0;
    }
    art
    {
        type            fixedValue;
        value           uniform 0;
    }
    inlet
    {
        type            fixedValue;
        value           nonuniform List<scalar> 
179
(
0
0
0
0
0
0
0
0
0
0
0
0
0
0
0
0
0
0
0
0
0
0
0
0
0
0
0
0
0
0
0
0
0
0
0
0
0
0
0
0
0
0
0
0
0
0
0
0
0
0
0
0
0
0
0
0
0
0
0
0
0
0
0
0
0
0
0
0
0
0.1067794001
0.1051618747
0.1028550373
0.1055633546
0.1051608985
0.04903271849
0.1055793659
0.07788280294
0.05327045762
0.1015190348
0.07975700975
0.05275358294
0.028125
0.07968504839
0.028125
0.05000117659
0.028125
0.05307107711
0.08345297171
0.05313998138
0.05181012522
0.1105209522
0.05553020711
0.1056765965
0.028125
0.0530519198
0.028125
0.1045628481
0.1015178546
0.1053848698
0.1092471144
0.1070099523
0.1076193313
0.1063279489
0.04856785938
0.1010440625
0.05324474916
0.05186825808
0.0499953986
0.05008138006
0.1028367393
0.028125
0.0530519198
0.05308839539
0.07784849051
0.105581405
0.028125
0.1027808707
0.0531598402
0.1024718986
0.1058812805
0.05201226086
0.1017057922
0.104782772
0.04745393817
0.09965383154
0.05213082794
0.1041746218
0.1003768631
0.105107583
0.1006545492
0.05008465738
0.028125
0.1062650714
0.1058489252
0.028125
0.05182534339
0.028125
0.05179218863
0.028125
0.05183675312
0.1069500268
0.028125
0.05217151216
0.1006601364
0.1019058701
0.05217151216
0.1008538268
0.1054408011
0.028125
0.07815457679
0.1070462695
0.1035906798
0.1058265029
0.1023403644
0.1072859183
0.1086854766
0.1077638215
0.1068899933
0.028125
0.05186825808
0.05310548799
0.05011362376
0.07972142591
0.1073790658
0.1061150818
0.1051643736
0.05008206528
0.1047608922
0.1065165837
0.108644715
0.1065287046
0.1074325873
0.104739867
0.0797277273
0.1062938721
0.05183675312
0.08345112105
0.1043877592
0.028125
)
;
    }
}


// ************************************************************************* //
