/*--------------------------------*- C++ -*----------------------------------*\
| =========                 |                                                 |
| \\      /  F ield         | OpenFOAM: The Open Source CFD Toolbox           |
|  \\    /   O peration     | Version:  5.x                                   |
|   \\  /    A nd           | Web:      www.OpenFOAM.org                      |
|    \\/     M anipulation  |                                                 |
\*---------------------------------------------------------------------------*/
FoamFile
{
    version     2.0;
    format      ascii;
    class       volScalarField;
    location    "1.6";
    object      p;
}
// * * * * * * * * * * * * * * * * * * * * * * * * * * * * * * * * * * * * * //

dimensions      [1 -1 -2 0 0 0 0];

internalField   nonuniform List<scalar> 
30538
(
101290.8779
101274.1398
101262.7525
101253.6507
101248.324
101244.4517
101244.5302
101252.1895
101269.5101
101294.3423
101323.9893
101352.2012
101375.8538
101390.8347
101397.4124
101395.8032
101386.294
101368.8731
101344.8679
101315.9935
101290.186
101272.2071
101259.9041
101250.3079
101245.0597
101241.7909
101242.7313
101251.1879
101269.198
101294.438
101324.3255
101352.6401
101376.1952
101390.9457
101397.2299
101395.3891
101385.6938
101368.2777
101344.4204
101315.8179
101288.9348
101268.7263
101254.7809
101244.2958
101239.1928
101236.9965
101239.4691
101249.3639
101268.6235
101294.5995
101324.9075
101353.3858
101376.771
101391.1364
101396.9434
101394.672
101384.6403
101367.2357
101343.6351
101315.5173
101287.3572
101264.3742
101248.3821
101236.7857
101231.894
101231.0045
101235.4531
101247.1057
101267.9145
101294.7975
101325.5768
101354.1828
101377.3415
101391.3003
101396.5756
101393.7605
101383.3208
101365.9335
101342.6434
101315.1376
101285.7431
101259.9977
101241.9405
101229.2643
101224.6489
101225.1179
101231.572
101244.9723
101267.3058
101295.0303
101326.1417
101354.7097
101377.5701
101391.1831
101395.9805
101392.6406
101381.8278
101364.4948
101341.5388
101314.7052
101284.3987
101256.4023
101236.6741
101223.2117
101218.9935
101220.7064
101228.7955
101243.7046
101267.1136
101295.2956
101326.3524
101354.5859
101377.0064
101390.3202
101394.7889
101391.081
101380.0458
101362.8693
101340.3117
101314.2223
101283.5998
101254.322
101233.6894
101219.95
101216.3022
101219.0386
101228.33
101244.0007
101267.6157
101295.5156
101325.8865
101353.3483
101375.1237
101388.1206
101392.4486
101388.6354
101377.6495
101360.8409
101338.8639
101313.6669
101283.4978
101254.2134
101233.6225
101220.3592
101217.4217
101220.897
101230.7393
101246.2402
101268.9704
101295.5757
101324.4125
101350.4956
101371.348
101383.9934
101388.3806
101384.7952
101374.2488
101358.1184
101337.0412
101312.9966
101284.0863
101256.0056
101236.4709
101224.5119
101222.5088
101226.4579
101236.1354
101250.5191
101271.193
101295.4004
101321.7294
101345.7097
101365.2754
101377.4763
101382.0542
101379.0997
101369.5055
101354.5175
101334.7356
101312.1694
101285.2636
101259.4608
101241.8555
101231.9367
101231.0974
101235.2861
101244.1792
101256.6712
101274.248
101295.0261
101317.8765
101339.0572
101356.985
101368.6667
101373.6087
101371.5705
101363.3196
101349.8647
101331.8275
101311.1554
101286.8456
101264.131
101249.0654
101241.653
101242.1523
101246.4753
101254.2369
101264.2748
101278.0373
101294.5613
101313.1439
101331.0117
101346.8636
101357.8094
101363.139
101362.2598
101355.7079
101344.2169
101328.341
101309.9613
101288.6238
101269.4472
101257.2495
101252.457
101254.3262
101258.8092
101265.3028
101272.7047
101282.3348
101294.1664
101308.0546
101322.3303
101335.6551
101345.6056
101351.2045
101351.5922
101346.951
101337.7306
101324.372
101308.6067
101290.4373
101274.8741
101265.5911
101263.1995
101266.336
101271.0107
101276.2968
101281.1524
101286.8601
101294.1521
101303.4074
101313.9536
101324.5108
101333.1359
101338.7126
101340.2266
101337.4981
101330.6872
101320.0574
101307.1394
101292.1851
101280.0628
101273.4562
101273.0642
101277.1673
101281.93
101286.147
101288.8789
101291.2802
101294.6322
101299.8179
101306.686
101314.4485
101321.4986
101326.6893
101328.9817
101327.9413
101323.4338
101315.5855
101305.6123
101293.82
101284.7862
101280.5022
101281.4675
101286.0969
101290.7237
101294.0572
101295.2006
101295.2449
101295.623
101297.4923
101301.1459
101306.2671
101311.6055
101316.0657
101318.6979
101318.9315
101316.467
101311.2231
101304.1174
101295.2952
101288.8489
101286.3125
101287.9916
101292.6063
101296.8824
101299.5589
101299.7679
101298.4402
101296.8975
101296.4084
101297.5825
101300.4378
101304.0837
101307.5743
101310.1594
101311.2011
101310.3281
101307.3068
101302.7589
101296.5962
101292.1727
101290.744
101292.5536
101296.6438
101300.3451
101302.5349
101302.3871
101300.5487
101298.1414
101296.3474
101295.9013
101297.032
101299.2098
101301.664
101303.8912
101305.295
101305.4668
101304.1231
101301.6305
101297.7143
101294.8378
101294.0524
101295.5775
101298.7635
101301.6662
101303.3687
101303.1802
101301.4739
101299.1075
101297.0139
101295.8769
101296.0297
101297.085
101298.5804
101300.2184
101301.546
101302.1967
101301.8958
101300.8106
101298.6766
101297.0566
101296.6717
101297.6684
101299.6962
101301.5694
101302.7027
101302.5769
101301.3968
101299.707
101298.1121
101297.131
101296.9465
101297.3522
101298.1044
101299.0472
101299.9413
101300.5282
101300.653
101300.3084
101299.5645
101299.0189
101298.8651
101299.1858
101299.8789
101300.5522
101300.9955
101300.9817
101300.582
101299.9603
101299.3569
101298.9537
101298.8041
101298.872
101299.0548
101299.3492
101299.6487
101299.9122
101300.0455
101300.0429
101291.8152
101275.7357
101262.9067
101251.6326
101243.9704
101238.2629
101237.8116
101244.9158
101261.6882
101285.9947
101315.2383
101343.7927
101368.6569
101385.2883
101393.6289
101393.414
101384.6589
101367.6966
101343.9866
101315.6319
101291.2167
101274.0872
101260.5275
101248.8543
101241.21
101236.0174
101236.33
101244.2434
101261.6882
101286.3984
101315.8478
101344.4303
101369.119
101385.4826
101393.4914
101393.0757
101384.1752
101367.2394
101343.6668
101315.5143
101290.1409
101271.1232
101256.2589
101243.8577
101236.2722
101231.9984
101233.6791
101243.0091
101261.676
101287.0975
101316.8867
101345.4852
101369.8279
101385.721
101393.1914
101392.4191
101383.275
101366.3931
101343.0581
101315.2949
101288.795
101267.4242
101250.9387
101237.6141
101230.1812
101227.0392
101230.4337
101241.4772
101261.6504
101287.9231
101318.055
101346.5534
101370.3956
101385.7161
101392.6151
101391.3916
101382.0072
101365.2305
101342.2046
101314.9808
101287.4322
101263.7083
101245.6154
101231.3871
101224.2248
101222.2287
101227.3842
101240.078
101261.713
101288.7256
101319.0047
101347.1689
101370.3591
101385.0892
101391.4852
101389.8188
101380.314
101363.7561
101341.1198
101314.5711
101286.2943
101260.687
101241.3133
101226.4766
101219.6801
101218.7883
101225.4307
101239.4762
101262.0961
101289.4146
101319.4051
101346.88
101369.2385
101383.3869
101389.3707
101387.4347
101378.0101
101361.8609
101339.7642
101314.0554
101285.6091
101258.8945
101238.8798
101223.91
101217.6497
101217.8024
101225.6346
101240.3386
101263.0651
101289.9079
101318.9519
101345.2808
101366.5913
101380.1143
101385.8185
101383.9081
101374.8247
101359.3384
101338.0482
101313.417
101285.5373
101258.8562
101239.0588
101224.7423
101219.3012
101220.3267
101228.643
101243.0987
101264.8282
101290.1732
101317.4279
101342.0611
101362.0589
101374.904
101380.4939
101378.9104
101370.479
101355.9919
101335.8876
101312.6326
101286.1089
101260.6034
101241.9503
101229.0666
101224.7492
101226.3687
101234.5213
101247.8633
101267.4801
101290.2812
101314.8155
101337.1431
101355.5206
101367.6057
101373.2029
101372.2324
101364.8435
101351.7382
101333.2046
101311.694
101287.2432
101263.999
101247.3151
101236.5505
101233.5579
101235.6079
101243.0745
101254.5747
101271.0856
101290.3696
101311.3213
101330.7582
101347.249
101358.516
101364.2394
101364.1019
101358.0498
101346.6095
101330.0174
101310.5902
101288.7713
101268.6417
101254.5321
101246.3646
101244.8934
101247.33
101253.7814
101262.8885
101275.6007
101290.6389
101307.3297
101323.4111
101337.6974
101348.0153
101353.8857
101354.7326
101350.2468
101340.7417
101326.3822
101309.3516
101290.5075
101273.9783
101262.8184
101257.4061
101257.558
101260.4054
101265.7165
101272.2152
101280.8475
101291.2877
101303.327
101315.7712
101327.5377
101336.7409
101342.6926
101344.5569
101341.7761
101334.3541
101322.4396
101308.0026
101292.3
101279.4434
101271.3441
101268.5289
101270.2452
101273.5106
101277.734
101281.6977
101286.428
101292.3969
101299.9481
101308.6754
101317.7706
101325.6797
101331.4731
101334.1606
101332.9846
101327.676
101318.2945
101306.5939
101294.026
101284.634
101279.3794
101278.8094
101281.8065
101285.422
101288.6699
101290.4774
101291.8511
101293.9274
101297.5386
101302.7747
101309.263
101315.7053
101321.0451
101324.2155
101324.3415
101321.0117
101314.1383
101305.1621
101295.6036
101289.2319
101286.4104
101287.4669
101291.3189
101295.0681
101297.5407
101297.7307
101296.657
101295.762
101296.1888
101298.4952
101302.6029
101307.4923
101312.0663
101315.348
101316.3937
101314.7479
101310.1584
101303.7851
101296.9415
101292.9912
101291.9534
101293.9673
101298.138
101301.8062
101303.6978
101302.9243
101300.4132
101297.6082
101295.852
101295.9686
101298.1305
101301.5035
101305.161
101308.1853
101309.7706
101309.3488
101306.676
101302.5532
101298.018
101295.7738
101295.7571
101298.0688
101301.9949
101305.3064
101306.8029
101305.6807
101302.6978
101299.1363
101296.2984
101295.0728
101295.7955
101297.8667
101300.5378
101303.0744
101304.7865
101305.1363
101303.8791
101301.5483
101298.8106
101297.6539
101298.0529
101300.0995
101303.2896
101305.9629
101307.1014
101306.0664
101303.3877
101300.0869
101297.2136
101295.5459
101295.481
101296.5678
101298.2929
101300.1525
101301.6296
101302.2987
101301.9181
101300.811
101299.3827
101298.8755
101299.2864
101300.6692
101302.758
101304.5075
101305.2638
101304.5726
101302.7419
101300.4262
101298.3471
101297.0691
101296.7284
101297.1946
101298.1136
101299.2212
101300.1767
101300.7338
101300.7503
101300.3521
101299.8131
101299.673
101299.8139
101300.2859
101301.0023
101301.6326
101301.9252
101301.7193
101301.0867
101300.2408
101299.4673
101298.9537
101298.7575
101298.8584
101299.1133
101299.4746
101299.8024
101300.0349
101300.1181
101300.0665
101293.363
101278.7607
101264.5442
101250.3391
101239.6169
101231.3983
101230.5142
101237.1503
101253.4445
101277.2204
101306.2243
101335.5627
101362.4564
101381.7958
101392.7079
101394.1477
101385.7659
101368.5752
101344.1857
101315.5915
101292.9352
101277.5811
101262.8835
101248.3407
101237.6698
101229.7717
101229.523
101236.8745
101253.7708
101277.912
101307.0429
101336.2624
101362.8443
101381.7903
101392.3659
101393.672
101385.2896
101368.2011
101343.9559
101315.521
101292.166
101275.4532
101259.8839
101244.7537
101234.1724
101226.8763
101227.7584
101236.372
101254.3442
101279.107
101308.4093
101337.3433
101363.2994
101381.5378
101391.5578
101392.6492
101384.3022
101367.4384
101343.4781
101315.3631
101291.2123
101272.7755
101256.1121
101240.2918
101229.8405
101223.3659
101225.6403
101235.7908
101255.0667
101280.4974
101309.863
101338.2649
101363.2762
101380.6375
101390.0216
101390.8913
101382.6933
101366.211
101342.6751
101315.088
101290.2383
101270.0316
101252.3031
101235.8764
101225.6352
101220.1288
101223.7826
101235.4087
101255.8881
101281.7844
101310.9073
101338.4408
101362.2301
101378.6319
101387.4017
101388.1082
101380.2615
101364.3823
101341.4641
101314.6599
101289.4108
101267.739
101249.2264
101232.4776
101222.5909
101218.0829
101222.99
101235.6925
101256.9341
101282.7742
101311.1311
101337.38
101359.7072
101375.1109
101383.336
101384.0187
101376.7788
101361.7772
101339.7777
101314.0564
101288.8767
101266.3864
101247.5994
101231.0227
101221.7613
101218.2954
101224.1068
101237.277
101258.4694
101283.4155
101310.3017
101334.7984
101355.442
101369.8047
101377.6
101378.4484
101372.058
101358.2628
101337.5473
101313.2667
101288.8595
101266.4263
101248.1691
101232.4194
101224.147
101221.6272
101227.8178
101240.6576
101260.7161
101283.8256
101308.4275
101330.6923
101349.4237
101362.6742
101370.1396
101371.427
101366.1006
101353.7991
101334.7436
101312.2753
101289.3831
101268.1198
101251.1687
101236.9912
101229.9519
101228.2899
101234.3008
101246.0277
101263.8707
101284.2136
101305.7804
101325.3331
101341.949
101354.0051
101361.2301
101363.1305
101359.0347
101348.4624
101331.4075
101311.1203
101290.4039
101271.4036
101256.4519
101244.5739
101238.9902
101238.0821
101243.4488
101253.3713
101268.0879
101284.84
101302.7
101319.1805
101333.5387
101344.3589
101351.3796
101353.9424
101351.169
101342.4569
101327.6749
101309.8332
101291.8132
101275.9532
101263.6007
101254.5284
101250.6414
101250.4025
101254.8179
101262.3966
101273.3993
101285.9944
101299.6592
101312.7756
101324.7298
101334.2411
101341.0373
101344.2334
101342.7793
101336.0046
101323.6553
101308.4726
101293.4836
101281.2614
101271.9894
101265.8848
101263.8538
101264.2609
101267.5803
101272.5852
101279.6056
101287.8153
101297.0854
101306.6797
101316.129
101324.3056
101330.803
101334.5013
101334.2709
101329.3681
101319.5036
101307.0585
101295.2634
101286.7668
101280.761
101277.5227
101277.3248
101278.4234
101280.7085
101283.1635
101286.3328
101290.2495
101295.291
101301.4464
101308.4085
101315.215
101321.2549
101325.2511
101326.0418
101322.8403
101315.3405
101305.6274
101296.9799
101291.9874
101289.042
101288.362
101289.7768
101291.5058
101292.931
101293.1708
101292.9458
101293.107
101294.4472
101297.4993
101302.1355
101307.5592
101312.9644
101316.966
101318.5274
101316.7635
101311.4274
101304.2324
101298.4823
101296.4216
101296.0786
101297.3406
101300.0025
101302.1923
101302.9897
101301.5233
101298.766
101296.0115
101294.4823
101294.9885
101297.6375
101301.7319
101306.3246
101310.1026
101312.102
101311.4377
101307.932
101302.9916
101299.6229
101299.716
101301.1375
101303.6827
101307.0264
101309.4847
101309.8372
101307.3814
101303.1105
101298.5765
101295.1943
101293.9276
101295.0338
101297.9166
101301.634
101304.9812
101307.0875
101307.1551
101305.1044
101301.9531
101300.349
101301.6536
101303.9322
101306.9738
101310.4348
101312.8446
101312.9716
101310.2316
101305.5809
101300.4647
101296.3314
101294.1372
101294.2156
101296.0616
101298.8646
101301.564
101303.494
101303.9812
101302.9652
101301.1745
101300.6211
101302.2781
101304.5887
101307.3671
101310.3295
101312.376
101312.3924
101310.0049
101305.9422
101301.3818
101297.5466
101295.253
101294.8339
101295.8967
101297.8134
101299.766
101301.2899
101301.8974
101301.5204
101300.6229
101300.5458
101301.8597
101303.5453
101305.4785
101307.4789
101308.8647
101308.8645
101307.2859
101304.5335
101301.3831
101298.6762
101296.9818
101296.5089
101297.0291
101298.116
101299.305
101300.2605
101300.7196
101300.6483
101300.3032
101300.2289
101300.7409
101301.3623
101302.028
101302.7441
101303.235
101303.2663
101302.7236
101301.7596
101300.6097
101299.6027
101298.947
101298.7231
101298.8534
101299.2118
101299.6103
101299.9559
101300.1283
101300.1541
101300.071
101295.0164
101282.4743
101268.0138
101252.0028
101240.0454
101230.548
101229.1042
101235.2515
101250.7729
101273.8248
101302.4986
101332.7569
101361.5839
101383.61
101396.5255
101398.7575
101389.7356
101371.241
101345.1276
101315.5394
101294.758
101281.7209
101266.9187
101250.6408
101238.6181
101229.3193
101228.36
101235.099
101251.1313
101274.4718
101303.1507
101333.0884
101361.4345
101382.995
101395.6659
101397.9302
101389.1464
101370.9156
101344.9974
101315.5204
101294.2831
101280.3353
101264.9318
101248.1942
101236.0747
101227.1496
101227.061
101234.8516
101251.791
101275.601
101304.1889
101333.4619
101360.8567
101381.5491
101393.7938
101396.162
101387.8735
101370.188
101344.6789
101315.4472
101293.6664
101278.5547
101262.4206
101245.1658
101232.9926
101224.5797
101225.5632
101234.6629
101252.6697
101276.9067
101305.1627
101333.3729
101359.3793
101378.9266
101390.6595
101393.2358
101385.7074
101368.8551
101344.0085
101315.2535
101293.0152
101276.7009
101259.8729
101242.2205
101230.1152
101222.3444
101224.4196
101234.797
101253.7146
101278.0722
101305.5757
101332.2834
101356.5391
101374.776
101385.988
101388.8894
101382.3759
101366.6804
101342.8135
101314.8735
101292.4423
101275.1282
101257.8616
101240.1097
101228.2972
101221.2869
101224.353
101235.6279
101254.986
101278.8743
101305.0525
101329.8183
101352.0307
101368.878
101379.5827
101382.9131
101377.6471
101363.4417
101340.95
101314.2517
101292.0799
101274.2668
101257.0219
101239.6643
101228.476
101222.3166
101226.0795
101237.6563
101256.6892
101279.3003
101303.4921
101325.9136
101345.8595
101361.2368
101371.4736
101375.3317
101371.4276
101358.9817
101338.2886
101313.3582
101292.1074
101274.5742
101258.023
101241.6922
101231.4678
101226.1657
101230.2249
101241.3467
101259.059
101279.5657
101301.0667
101320.7859
101338.31
101352.1569
101361.9269
101366.3542
101363.8371
101353.338
101334.8422
101312.1851
101292.5885
101276.3959
101261.248
101246.6381
101237.6184
101233.1352
101237.0022
101246.9242
101262.3713
101279.9683
101298.2242
101314.9355
101329.9511
101342.2169
101351.4697
101356.3861
101355.1971
101346.7179
101330.7158
101310.7911
101293.5312
101279.6879
101266.6251
101254.4235
101246.7907
101243.1005
101246.3757
101254.4268
101266.8366
101280.8619
101295.4197
101308.9371
101321.4075
101332.0601
101340.7339
101345.9695
101345.9646
101339.4545
101326.129
101309.228
101294.9054
101284.1626
101273.8953
101264.5605
101258.5148
101255.5978
101257.9488
101263.6085
101272.473
101282.5385
101293.1379
101303.3514
101313.2746
101322.3194
101330.2886
101335.6392
101336.5933
101331.9115
101321.2738
101307.5812
101296.5964
101289.4477
101282.5251
101276.2102
101271.946
101269.7944
101271.0141
101274.0517
101279.1255
101285.0828
101291.7012
101298.6472
101306.1067
101313.593
101320.7346
101325.9545
101327.6029
101324.488
101316.4166
101305.9086
101298.424
101295.018
101291.5959
101288.2552
101285.8678
101284.4297
101284.5011
101284.9561
101286.3196
101288.2993
101291.1926
101295.1064
101300.3103
101306.2902
101312.4673
101317.3184
101319.3438
101317.5271
101311.7705
101304.2841
101300.1632
101300.2689
101300.1203
101299.4823
101298.8637
101298.093
101297.1393
101295.3157
101293.3825
101291.8824
101291.5627
101292.9038
101296.1435
101300.6948
101305.8514
101310.1612
101312.2979
101311.4473
101307.6868
101302.7781
101301.6051
101304.5187
101307.0343
101308.5394
101309.4294
101309.2125
101307.5025
101303.9251
101299.4925
101295.3666
101292.6427
101292.0068
101293.6482
101296.9777
101301.1415
101304.7725
101306.8114
101306.6245
101304.3921
101301.5592
101302.5408
101307.2811
101311.4648
101314.4431
101316.3542
101316.5955
101314.4694
101309.8816
101304.0144
101298.3592
101294.1814
101292.252
101292.7058
101295.0224
101298.2566
101301.2035
101303.0198
101303.2172
101302.0527
101300.6918
101302.8847
101308.2504
101313.0625
101316.6517
101319.0405
101319.5271
101317.3792
101312.6308
101306.5081
101300.4945
101295.8553
101293.3312
101293.0232
101294.5333
101296.9622
101299.2828
101300.7579
101301.1341
101300.6209
101300.1934
101302.5947
101307.4425
101311.8079
101315.1195
101317.3456
101317.9059
101316.0845
101312.0202
101306.7417
101301.5141
101297.3702
101294.9545
101294.3767
101295.2688
101296.9825
101298.6006
101299.7064
101300.0835
101299.9467
101299.9372
101301.8114
101305.1806
101308.2409
101310.5736
101312.1549
101312.6007
101311.3938
101308.6554
101305.0877
101301.5088
101298.64
101296.9222
101296.405
101296.8657
101297.8711
101298.8499
101299.5145
101299.7995
101299.7936
101299.9091
101300.6797
101301.9291
101303.0344
101303.8717
101304.4367
101304.6197
101304.1848
101303.2107
101301.9385
101300.6526
101299.5979
101298.9575
101298.7723
101298.902
101299.2685
101299.6002
101299.8617
101299.9099
101299.9533
101299.9468
101296.2967
101286.281
101272.9495
101257.4963
101246.0801
101237.1572
101236.0231
101241.9815
101256.4754
101277.9962
101305.6783
101335.8008
101365.1779
101388.4154
101402.2126
101404.5479
101394.4134
101374.3208
101346.1195
101315.201
101296.1494
101285.7793
101272.1821
101256.4294
101244.8633
101236.0729
101235.278
101241.7169
101256.6155
101278.3203
101305.8298
101335.4685
101364.269
101387.0609
101400.7312
101403.293
101393.6324
101373.9807
101346.0839
101315.2413
101295.868
101284.8427
101270.7709
101254.513
101242.6876
101234.1639
101233.9859
101241.3052
101256.9192
101278.8837
101305.9938
101334.659
101362.3388
101384.2768
101397.7163
101400.7322
101391.9998
101373.2077
101345.9268
101315.2845
101295.496
101283.6107
101268.9708
101252.1382
101240.0869
101231.9208
101232.5703
101240.9814
101257.4007
101279.5025
101305.8782
101333.0588
101359.0851
101379.8341
101393.0168
101396.7277
101389.3109
101371.773
101345.427
101315.2304
101295.076
101282.3226
101267.1504
101249.8901
101237.7409
101230.0307
101231.5978
101241.0768
101258.0748
101279.9624
101305.1382
101330.3272
101354.3156
101373.658
101386.5896
101391.1438
101385.336
101369.4221
101344.3685
101314.9988
101294.7021
101281.2609
101265.8105
101248.4453
101236.4637
101229.3179
101231.7359
101241.914
101259.0015
101280.1178
101303.4951
101326.2484
101347.8939
101365.743
101378.4093
101383.8747
101379.8178
101365.8583
101342.5299
101314.4939
101294.463
101280.8564
101265.5362
101248.605
101237.1185
101230.621
101233.574
101243.9043
101260.3424
101280.0052
101301.0251
101320.9937
101340.1544
101356.3543
101368.6693
101374.9911
101372.6164
101360.8344
101339.6821
101313.6408
101294.5433
101281.5635
101266.9858
101251.09
101240.4253
101234.5758
101237.6813
101247.3704
101262.3201
101279.8077
101297.8719
101314.759
101331.4412
101345.9836
101357.7571
101364.7162
101363.8709
101354.3387
101335.7714
101312.4084
101295.0448
101283.6828
101270.5702
101256.3864
101246.7522
101241.444
101244.1809
101252.4682
101265.2082
101279.8349
101294.6771
101308.477
101322.5094
101335.2182
101346.2564
101353.5025
101353.9122
101346.5655
101330.878
101310.8399
101296.0696
101287.1186
101276.2462
101264.4055
101255.9691
101251.1077
101253.0005
101259.2431
101269.174
101280.4481
101291.8504
101302.6352
101313.94
101324.7647
101334.7962
101341.9324
101343.2722
101337.9129
101325.2741
101308.9929
101297.562
101291.695
101283.8294
101274.7295
101267.6215
101263.0944
101263.7905
101267.545
101274.1977
101281.8498
101289.8297
101297.7095
101306.3349
101315.2295
101324.0123
101330.653
101332.5417
101328.9164
101319.3074
101306.9752
101299.3763
101297.1295
101292.7504
101286.5865
101280.8794
101276.6213
101275.8907
101276.9812
101280.1127
101284.0999
101288.7513
101293.9234
101300.1428
101307.1471
101314.4836
101320.3012
101322.371
101320.1422
101313.4321
101304.8582
101301.3094
101302.8346
101302.0366
101298.7944
101294.5631
101290.547
101288.3551
101286.7671
101286.5475
101287.095
101288.6804
101291.3864
101295.5619
101300.8279
101306.6356
101311.3894
101313.3103
101312.1523
101307.9832
101302.8678
101303.0776
101308.0749
101310.5695
101309.9819
101307.2734
101303.52
101299.9006
101295.9862
101292.8383
101290.479
101289.4891
101290.1475
101292.6249
101296.3939
101300.7635
101304.3853
101305.9785
101305.5254
101303.4009
101301.1586
101304.4239
101312.0277
101317.1401
101318.67
101317.4378
101313.9524
101309.3571
101303.6771
101298.3228
101293.8024
101290.9421
101290.0856
101291.2256
101293.7595
101296.9272
101299.5444
101300.7445
101300.6954
101299.9798
101299.8711
101305.1397
101314.1496
101320.7486
101323.8076
101323.6669
101320.6174
101315.5954
101308.9956
101302.4049
101296.6826
101292.7419
101290.9389
101291.0934
101292.6725
101294.9121
101296.6846
101297.5357
101297.7177
101297.8887
101299.0528
101305.1198
101314.107
101321.0647
101324.7518
101325.3621
101322.8536
101318.0548
101311.4703
101304.7572
101298.8343
101294.6238
101292.4418
101292.0254
101292.9176
101294.4577
101295.6577
101296.2191
101296.517
101297.063
101298.7536
101304.3283
101311.9071
101317.9158
101321.3303
101322.195
101320.3792
101316.4405
101310.9155
101305.1716
101300.0885
101296.3963
101294.3903
101293.808
101294.2625
101295.2826
101296.0254
101296.3955
101296.6168
101297.2407
101298.7955
101302.9031
101308.0095
101312.1202
101314.5435
101315.2749
101314.1881
101311.5908
101307.884
101303.9903
101300.5384
101298.0196
101296.6184
101296.1598
101296.3797
101296.9491
101297.4074
101297.603
101297.7981
101298.1882
101299.1842
101301.0362
101302.9227
101304.4326
101305.2987
101305.5975
101305.224
101304.2852
101302.9267
101301.5248
101300.2718
101299.3706
101298.8684
101298.7389
101298.8222
101299.0491
101299.2285
101299.3488
101299.3156
101299.4551
101299.7017
101296.8508
101289.6119
101278.1585
101265.3131
101256.0505
101249.2526
101248.5861
101254.0433
101266.3858
101285.1893
101309.9679
101337.693
101365.0331
101387.3137
101400.6583
101402.9122
101392.5124
101372.2359
101344.5105
101314.1219
101296.7221
101289.1653
101277.374
101264.1373
101254.6773
101247.9174
101247.5437
101253.4992
101266.3058
101285.3233
101309.849
101337.0034
101363.7716
101385.6689
101399.0381
101401.6316
101391.8203
101372.0425
101344.6284
101314.2525
101296.4699
101288.3412
101275.9354
101262.0243
101252.231
101245.5559
101245.8234
101252.7228
101266.3074
101285.6122
101309.5601
101335.5763
101361.2171
101382.3094
101395.7081
101399.0175
101390.3488
101371.566
101344.7738
101314.4554
101296.1217
101287.2541
101274.086
101259.4096
101249.2566
101242.7608
101243.9608
101252.0369
101266.4663
101285.8835
101308.8809
101333.2688
101357.3032
101377.2876
101390.6741
101394.957
101387.889
101370.5305
101344.6753
101314.6167
101295.7155
101286.1707
101272.2425
101256.9575
101246.5447
101240.3665
101242.5168
101251.6924
101266.7886
101285.9402
101307.6357
101329.9736
101351.9914
101370.6561
101384.0213
101389.3907
101384.1537
101368.5963
101344.0321
101314.6096
101295.3746
101285.3912
101270.9964
101255.4705
101245.0375
101239.2715
101242.1775
101252.0396
101267.287
101285.6512
101305.5715
101325.5874
101345.2702
101362.4325
101375.7004
101382.1731
101378.8277
101365.3449
101342.4988
101314.2762
101295.2049
101285.337
101271.0001
101255.8604
101245.5825
101240.265
101243.5549
101253.4274
101268.1455
101285.0778
101302.7812
101320.1517
101337.2928
101352.8567
101365.8606
101373.2917
101371.6782
101360.4153
101339.735
101313.5037
101295.4693
101286.4031
101272.9609
101258.7959
101248.9813
101243.9232
101246.9928
101256.1057
101269.4378
101284.2764
101299.4951
101314.0955
101328.4895
101342.3619
101354.8579
101362.8826
101362.7487
101353.7227
101335.6341
101312.2505
101296.2826
101288.8564
101277.2779
101264.5752
101255.3597
101250.3544
101252.6213
101260.1638
101271.3335
101283.6281
101296.0045
101307.6871
101319.4065
101331.5327
101343.1864
101351.3347
101352.2716
101345.365
101330.2551
101310.5329
101297.6607
101292.7368
101283.7598
101273.0245
101264.5851
101259.4193
101260.3096
101265.5996
101273.9557
101283.3044
101292.5866
101301.4714
101310.7148
101321.0059
101331.5071
101339.2546
101340.8147
101335.8054
101323.9374
101308.4485
101299.5036
101297.8264
101292.0348
101283.7444
101276.1564
101270.6307
101269.6928
101272.1699
101277.3253
101283.4501
101289.6887
101295.9839
101303.0346
101311.4458
101320.4524
101327.263
101329.0032
101325.6545
101317.0747
101306.1492
101301.6144
101303.6685
101301.462
101295.8306
101289.1484
101283.1153
101280.1836
101279.504
101281.3263
101284.2524
101287.725
101291.7535
101296.8773
101303.4252
101310.6463
101316.0885
101317.6728
101315.6624
101310.2395
101303.7815
101303.7455
101309.6078
101310.9841
101308.0078
101302.274
101295.6538
101290.7852
101287.0935
101285.6876
101285.6549
101286.7484
101288.9157
101292.3975
101297.2151
101302.5609
101306.4493
101307.5862
101306.6126
101303.9945
101301.5473
101305.5819
101314.8167
101319.4089
101318.8195
101314.1056
101306.9886
101300.4161
101294.2023
101290.0968
101287.6122
101286.8388
101287.5446
101289.7358
101292.9882
101296.5677
101298.9761
101299.5744
101299.3024
101298.9226
101299.6309
101306.8548
101318.4548
101325.4589
101326.7908
101323.156
101315.8262
101308.1362
101300.0915
101294.1457
101289.9649
101287.8484
101287.4361
101288.5217
101290.4521
101292.6518
101293.9423
101294.0772
101294.2233
101295.3383
101298.2399
101307.3493
101319.8941
101328.1709
101330.8611
101328.218
101321.2535
101313.0782
101304.2754
101297.4503
101292.3847
101289.5009
101288.3374
101288.6025
101289.5592
101290.7801
101291.2752
101291.1296
101291.4409
101293.4207
101297.4396
101307.0032
101318.904
101327.2397
101330.4938
101328.7639
101322.6656
101314.9423
101306.4976
101299.7287
101294.6147
101291.5187
101290.0353
101289.7557
101290.1485
101290.7336
101290.8648
101290.5451
101290.9107
101293.0387
101297.2432
101305.7318
101315.4791
101322.4458
101325.4795
101324.4262
101319.746
101313.4488
101306.5503
101300.8504
101296.5322
101293.814
101292.3932
101291.9249
101292.0215
101292.3238
101292.2821
101292.0013
101292.2187
101294.0803
101297.5612
101303.7574
101310.2197
101314.9115
101317.0517
101316.515
101313.5544
101309.4272
101304.8817
101301.0744
101298.1268
101296.2752
101295.2625
101294.8371
101294.8686
101294.9764
101294.9866
101294.7582
101294.972
101296.1027
101298.3634
101301.2858
101303.6921
101305.4037
101306.2116
101306.0532
101305.0353
101303.5189
101301.8563
101300.4486
101299.3837
101298.755
101298.3903
101298.2731
101298.2984
101298.3983
101298.4259
101298.429
101298.3714
101298.8124
101299.3817
101297.1767
101292.0646
101283.0389
101273.5528
101267.689
101263.9214
101264.0901
101268.2769
101277.4081
101291.3272
101310.0772
101331.8737
101354.4364
101374.3529
101387.2425
101390.4539
101381.3885
101363.0959
101339.1295
101312.3325
101297.0064
101291.555
101282.0689
101272.1152
101266.0155
101262.179
101262.7108
101267.5444
101277.318
101291.5101
101310.1572
101331.492
101353.5669
101373.1663
101386.176
101389.7298
101381.114
101363.3157
101339.4656
101312.533
101296.6789
101290.6308
101280.2713
101269.5885
101262.9914
101259.1383
101260.4331
101266.4721
101277.3088
101292.0142
101310.4239
101330.8723