/*--------------------------------*- C++ -*----------------------------------*\
| =========                 |                                                 |
| \\      /  F ield         | OpenFOAM: The Open Source CFD Toolbox           |
|  \\    /   O peration     | Version:  5.x                                   |
|   \\  /    A nd           | Web:      www.OpenFOAM.org                      |
|    \\/     M anipulation  |                                                 |
\*---------------------------------------------------------------------------*/
FoamFile
{
    version     2.0;
    format      ascii;
    class       surfaceScalarField;
    location    "1.6";
    object      phi;
}
// * * * * * * * * * * * * * * * * * * * * * * * * * * * * * * * * * * * * * //

dimensions      [1 0 -1 0 0 0 0];

internalField   nonuniform List<scalar> 
91025
(
0.8312459829
-0.01480529322
0.05167862025
0.9132650918
-0.04739240363
0.2040402339
1.008290419
-0.05549769436
0.2332015931
0.8828481574
-0.06027868933
0.280531442
0.5524747474
-0.04218488695
0.2017643609
-0.1051404933
-0.03641190382
0.1573433745
-0.9195337024
-0.004279658438
0.04888233317
-1.71334509
0.04454671458
-0.01854075556
-2.216436721
0.1391732693
-0.09266278616
-2.315480555
0.2581514695
-0.1373760987
-1.96391175
0.4039283786
-0.1831760061
-1.250775991
0.5271884424
-0.2089159792
-0.3632970016
0.60735006
-0.2265184071
0.4640072698
0.6044793039
-0.2195435659
1.065451483
0.5393904387
-0.2021318246
1.323045715
0.4125800789
-0.1607995937
1.271617406
0.2840723313
-0.1295354524
1.035190713
0.163130496
-0.08519367606
0.791414743
0.08190048829
-0.05753020557
0.01383968981
-0.01939832315
0.8163897026
-0.02166316036
0.04951910847
0.905281419
-0.07637544404
0.1990308065
1.00833877
-0.08466757742
0.224761803
0.8877615033
-0.09474178152
0.2704640642
0.5608617283
-0.06319028135
0.1903537003
-0.08964815539
-0.05838398692
0.1471553841
-0.8905939876
-0.005873576714
0.03904754124
-1.667248315
0.08467062329
-0.02549077321
-2.153590251
0.2645252158
-0.09882634347
-2.245740397
0.4908809215
-0.1436913672
-1.90266109
0.7668850369
-0.1904244526
-1.214141944
0.9972726704
-0.2176786854
-0.3618422837
1.146443615
-0.2363663352
0.430561872
1.137807515
-0.2301826775
1.007132998
1.013475706
-0.2130314101
1.257954459
0.7720664933
-0.1722053791
1.212475051
0.5312240582
-0.140300699
0.9894010243
0.3045823225
-0.09460702998
0.7592231778
0.1536467268
-0.06397235888
0.02624653933
-0.02182007267
0.7932735559
-0.01484864629
0.04580024486
0.8936674498
-0.07171066391
0.1892893963
1.009484367
-0.06726405422
0.2093253246
0.896016511
-0.0822033718
0.251367246
0.5740434288
-0.04610637638
0.1697083143
-0.06351321418
-0.05464161819
0.1284198485
-0.8389081677
0.001010225984
0.02152893098
-1.582917137
0.1188322525
-0.03802345696
-2.037531196
0.3643889634
-0.1103908356
-2.117152307
0.6742689622
-0.1553696953
-1.790068191
1.052577644
-0.2047823805
-1.147503857
1.361529508
-0.2343695049
-0.3604941236
1.560240972
-0.2557819422
0.3673426024
1.539682124
-0.2505921483
0.8986126556
1.367808892
-0.2342816444
1.137571712
1.035569625
-0.1936360663
1.103805406
0.7115750975
-0.160616315
0.9054524423
0.4060555397
-0.1119062395
0.6999135307
0.2067587929
-0.07612618576
0.03551805402
-0.02623233588
0.7723824333
0.008568974353
0.03990785469
0.8842672634
-0.02603507161
0.1757752934
1.011926197
0.004122572244
0.1864431914
0.9036335746
-0.0132990014
0.224797913
0.5855930204
0.01749207525
0.1399846818
-0.03562492179
-0.02160067837
0.1020903298
-0.7705811119
0.03152454164
-0.001418077548
-1.466343998
0.1467951154
-0.05491124763
-1.877505588
0.4309386456
-0.1255841879
-1.940588338
0.7891104364
-0.1717648301
-1.637448152
1.231224945
-0.2237456964
-1.059461695
1.583573261
-0.2575687934
-0.3621695324
1.806127073
-0.2818602836
0.2782855565
1.76892674
-0.2783034967
0.7494212296
1.563284545
-0.2623405463
0.9733217381
1.174613422
-0.222023313
0.9571463727
0.8040237167
-0.1866489599
0.7929585403
0.4537708962
-0.1342640655
0.6198622232
0.233553763
-0.09142806162
0.03918923771
-0.03216907433
0.7661921178
0.04890464211
0.03299690338
0.8840813673
0.06066094216
0.1577710851
1.015513566
0.1369198446
0.1584027825
0.9043583296
0.1150666099
0.1914972091
0.5864367471
0.1358782262
0.1048641075
-0.0128333612
0.04622749268
0.07195519747
-0.6987604509
0.08170732886
-0.02395425167
-1.334446497
0.1684560788
-0.07330800293
-1.691926015
0.4595835358
-0.1430468488
-1.735326304
0.8244066933
-0.1900634165
-1.461130967
1.287268431
-0.2467163193
-0.960492341
1.6432043
-0.2841605229
-0.3686643879
1.865049007
-0.3121173141
0.172034515
1.808379618
-0.309161072
0.5765084116
1.586429772
-0.2932738786
0.7845428242
1.178312399
-0.2520227658
0.7904834109
0.800985394
-0.2143484599
0.6663038541
0.4415072015
-0.1573967166
0.5294453134
0.229529979
-0.1076508586
0.03485937517
-0.03820060235
0.789257528
0.0976568496
0.02413067076
0.9016152331
0.1729210714
0.1361020235
1.022966061
0.2971851158
0.1242961272
0.8961419741
0.2757908209
0.1534302515
0.5710990669
0.2779813566
0.06504367164
-0.002955609152
0.1422269936
0.03976833003
-0.6370710862
0.1398635679
-0.04940001134
-1.201123828
0.1859883479
-0.09198379912
-1.500617943
0.4511530573
-0.1601268048
-1.5229435
0.7830282651
-0.2091562797
-1.281814973
1.222407235
-0.2686859972
-0.864807397
1.543901538
-0.3108873023
-0.3836922462
1.742650347
-0.3403647321
0.05528628086
1.66803909
-0.3377270524
0.3953690803
1.449581975
-0.3199093629
0.5894264517
1.055748748
-0.2773410728
0.6213218436
0.7081648521
-0.2369060666
0.5398519217
0.3733546675
-0.1766879455
0.4409101633
0.1949636899
-0.1208831881
0.02227494758
-0.04334990797
0.8469810475
0.1439883889
0.01514623516
0.9385349898
0.2789126395
0.110763103
1.033664873
0.4479151901
0.08772029328
0.8762256423
0.4234817033
0.1119539675
0.5348704861
0.4062101153
0.02422294202
-0.01563178605
0.2330004745
0.005718779376
-0.5927172494
0.196332023
-0.07438770248
-1.084077168
0.1935084393
-0.1103600672
-1.325098308
0.4086385709
-0.1771408128
-1.325213094
0.6764912331
-0.2266607666
-1.116149359
1.056831986
-0.290083811
-0.7802418155
1.312574923
-0.3333642397
-0.404295572
1.473775674
-0.3631315665
-0.0588325309
1.385065622
-0.3581745995
0.2233708342
1.189060195
-0.3367832545
0.40767238
0.8365564335
-0.29134204
0.4673887708
0.5495237219
-0.2490791
0.428076408
0.2633161025
-0.1866328562
0.3656963755
0.1378318124
-0.1281004933
0.003449128573
-0.04589455916
0.9414258608
0.1792436974
0.005379859762
0.9966115555
0.3560226821
0.08499031898
1.047567934
0.5606273418
0.05086376927
0.8471699158
0.52567407
0.07100178287
0.4832312408
0.4923970905
-0.01396315488
-0.04719897501
0.2921139082
-0.02356590228
-0.5716151424
0.2307873691
-0.09724870481
-0.9949084678
0.179290885
-0.1273231795
-1.180961376
0.3362770469
-0.1912054913
-1.160557473
0.5248735164
-0.2417269951
-0.9815375489
0.822106174
-0.3047412503
-0.7180278951
0.9961018819
-0.3484211753
-0.4322630041
1.111818154
-0.3744966661
-0.1652348294
1.013070054
-0.3656924736
0.07138233193
0.8563919673
-0.3383702413
0.2515117471
0.5624533979
-0.2897178126
0.339995183
0.3543125272
-0.2457050778
0.3409663589
0.1331888967
-0.1835472055
0.3130828698
0.07078127805
-0.1261814416
-0.01874891627
-0.04517678725
1.05940292
0.1968770916
-0.003964223174
1.06700306
0.3849481543
0.05949784532
1.059717484
0.6058969699
0.01695374814
0.8084615066
0.5498107978
0.03194372009
0.4175799212
0.5076587224
-0.0470335749
-0.09696409291
0.2956067612
-0.05077198203
-0.5744231401
0.2228213243
-0.1181592627
-0.9384207711
0.1366390726
-0.1423984543
-1.076725674
0.2427433426
-0.2032157728
-1.039217444
0.3481386838
-0.251126663
-0.8838853851
0.5573151575
-0.3128927823
-0.6785020731
0.6445769378
-0.3518838393
-0.4627557647
0.7135862832
-0.3720949658
-0.2543740491
0.6095707998
-0.3561015081
-0.04725622897
0.5024090159
-0.3215915987
0.1335167405
0.2819330789
-0.268934733
0.2498216688
0.1620452779
-0.2240019556
0.2860515497
0.008137363611
-0.1650525213
0.2867988527
0.007581295264
-0.1140640849
-0.03942801576
-0.04058273005
1.191813172
0.1941502012
-0.01310612608
1.145145079
0.3567501931
0.03628545379
1.07028482
0.5715848624
-0.01250554513
0.7663674142
0.4843666988
9.663322983e-05
0.3463368979
0.4390475277
-0.07346519506
-0.1557544134
0.2262045777
-0.07336227002
-0.5956504676
0.1586433955
-0.1338028701
-0.9108509001
0.05596176943
-0.1546309211
-1.013591021
0.1294049558
-0.2103354566
-0.9652813289
0.167119182
-0.2557103541
-0.8300199007
0.2988225512
-0.3110600952
-0.666156773
0.3177219498
-0.3433904988
-0.4966207629
0.3532245237
-0.3540579721
-0.3242478004
0.2508245151
-0.3291007329
-0.1313106085
0.1937056132
-0.2864798886
0.05545740138
0.03897520192
-0.2299654781
0.1966074001
-0.0007778224792
-0.1859271172
0.2620569605
-0.09564732359
-0.1329451716
0.2862125081
-0.04295690915
-0.09278508968
-0.05571773684
-0.03241939174
1.313213462
0.1719488823
-0.02052006962
1.212729642
0.2713279891
0.01567586733
1.067714557
0.4554814883
-0.03834072141
0.717139118
0.3269747295
-0.0274996157
0.2741216678
0.2820035989
-0.09376147695
-0.2166155165
0.07633361763
-0.09087490997
-0.6245009602
0.03299057721
-0.1456212699
-0.9020450021
-0.06723850028
-0.1626987656
-0.9805793783
-0.0007380183819
-0.2137467894
-0.9263663162
-0.01016916297
-0.2525190426
-0.8046682678
0.07059010637
-0.3001461084
-0.6680706103
0.03989232776
-0.3224328385
-0.5257578727
0.05888309355
-0.3219485873
-0.3699710225
-0.02916295625
-0.2864980015
-0.181102203
-0.03774688875
-0.2354884101
0.01611423882
-0.1336521903
-0.1759586443
0.1761695645
-0.1087176354
-0.1341147897
0.2635220784
-0.1601687081
-0.09016034302
0.3046663902
-0.07115340208
-0.06397470061
-0.06497707993
-0.02175727003
1.412397627
0.1314590277
-0.02518951978
1.263698014
0.1353735135
-0.0002376548236
1.052956909
0.263927419
-0.05544309519
0.6664819227
0.08774950692
-0.04664360739
0.2106751312
0.04502235277
-0.1043679529
-0.2688262199
-0.1511966542
-0.101150649
-0.6507398543
-0.1563568756
-0.1490445683
-0.9008949919
-0.2388086519
-0.1651056464
-0.9670360291
-0.1531068906
-0.2095948443
-0.9139911925
-0.1712137424
-0.2422939464
-0.8051406553
-0.106145273
-0.2791347621
-0.6825650038
-0.1564710093
-0.291385777
-0.5517011427
-0.1329969678
-0.2791405803
-0.3974999267
-0.202823835
-0.2335566382
-0.203558667
-0.1694172808
-0.1759594258
0.00597345289
-0.2231800075
-0.1137545038
0.1806613221
-0.154134451
-0.07617253098
0.2843388297
-0.1802050756
-0.04199625647
0.3372963059
-0.07248199552
-0.03210619374
-0.06533790259
-0.009551549924
1.464098763
0.075367946
-0.02835308343
1.277815728
-0.04110068565
-0.01413471262
1.01455517
0.01127582738
-0.06732516642
0.6085549048
-0.2229760662
-0.0588735617
0.15409108
-0.2658648164
-0.1109056813
-0.3071621207
-0.4510573109
-0.1056617663
-0.6631324367
-0.4048497289
-0.149335144
-0.8911287337
-0.448202876
-0.1621339432
-0.9502719762
-0.3213517701
-0.2010461586
-0.9043110505
-0.3209344837
-0.2248884668
-0.8082953568
-0.2371916872
-0.2508688412
-0.6917377423
-0.2786557048
-0.2513736882
-0.5626476298
-0.2290814095
-0.2280774721
-0.4031853514
-0.2706804908
-0.1743307414
-0.2025204231
-0.2000041591
-0.1112119154
0.01634453108
-0.2249453677
-0.04898853532
0.1986786841
-0.1331786192
-0.01585909582
0.3117631501
-0.1532152289
0.006588387678
0.371067862
-0.04673893956
0.0006371264456
-0.05667977162
0.002129468315
1.46545673
0.006119259864
-0.02841670843
1.254496125
-0.2526311245
-0.02310565015
0.9562344724
-0.2935608338
-0.07041297302
0.5494428265
-0.5883241425
-0.0635751618
0.109948845
-0.6332525644
-0.1066617058
-0.3243278462
-0.7978065047
-0.1044455905
-0.655269717
-0.6959009778
-0.1414908362
-0.8654766556
-0.6865011746
-0.1546847796
-0.9274015707
-0.5008186963
-0.1855853137
-0.88959914
-0.4569763265
-0.2026169372
-0.808215121
-0.3268321615
-0.2159722059
-0.6951678048
-0.3289024665
-0.2068592121
-0.5621239033
-0.2323983044
-0.1754581063
-0.395479927
-0.2375722902
-0.116530493
-0.1880366977
-0.1335628123
-0.05226007186
0.03605758067
-0.1418463793
0.009033701107
0.2223102302
-0.04648416395
0.03836653616
0.3394136148
-0.08107465677
0.05138568738
0.4008200479
0.003331394308
0.0297731088
-0.04051335988
0.0128816495
1.395174052
-0.06967810211
-0.02799141114
1.175731562
-0.4763013066
-0.02744139277
0.8684022016
-0.6178099156
-0.07044618585
0.4813829875
-0.9712310775
-0.06302449932
0.07582681364
-1.019672778
-0.1002715622
-0.3190586554
-1.165536803
-0.09761518371
-0.6177381047
-1.008961579
-0.1318278885
-0.8101544913
-0.9462374079
-0.1410124833
-0.8768092965
-0.6915156104
-0.1662794566
-0.8506987749
-0.5841142313
-0.1746640943
-0.778884896
-0.379247276
-0.1786586619
-0.6720947373
-0.3174932111
-0.1599482687
-0.5381741753
-0.1592629144
-0.1229014006
-0.3696298216
-0.1221353954
-0.06303408531
-0.1634299965
0.01379388214
-0.0001690420707
0.05611464298
0.01088873295
0.06023408706
0.2379217428
0.09882017148
0.0840118252
0.3523982309
0.02955094025
0.08535553704
0.4109424847
0.07964902446
0.05296006143
-0.01785700823
0.02020190424
1.260706966
-0.1454846889
-0.02433043547
1.049734594
-0.6872096255
-0.02769222011
0.7589510467
-0.9218969185
-0.06195964546
0.4111948645
-1.327208916
-0.05638117585
0.05527983517
-1.381548064
-0.08436796354
-0.2889315738
-1.51256587
-0.08492216176
-0.5519311349
-1.314644158
-0.1119516634
-0.7261304724
-1.203812001
-0.1212925625
-0.7971678077
-0.8816188028
-0.138582351
-0.7829756253
-0.7005506942
-0.1420752534
-0.7218976451
-0.408436778
-0.1396086409
-0.6249757805
-0.2659709219
-0.1167254464
-0.4961600481
-0.03477299821
-0.07898524215
-0.3334937007
0.04986898387
-0.02236841028
-0.1363161984
0.2198369151
0.03756562423
0.06946275625
0.2163936707
0.09090916688
0.2401695726
0.2848877808
0.1082776244
0.347231582
0.1708166981
0.1036658305
0.4004157242
0.1699044151
0.06435357678
0.008752391932
0.02461430538
1.052787188
-0.2097657981
-0.02106274447
0.867640404
-0.8642125371
-0.024033008
0.6197203776
-1.173973206
-0.05235459803
0.3309199035
-1.624024943
-0.04608693506
0.04104959588
-1.686982414
-0.06966724587
-0.2400080846
-1.81557684
-0.06936459867
-0.4582610473
-1.59127619
-0.09374554981
-0.606963093
-1.442488217
-0.09838931736
-0.6728844949
-1.057242126
-0.110748214
-0.6670074619
-0.8016848035
-0.1076080845
-0.6177572982
-0.4231620547
-0.1014526896
-0.5343460078
-0.2005889672
-0.07752443531
-0.4218518054
0.1021903283
-0.04286949638
-0.2783552097
0.2352522594
0.006149158339
-0.106555122
0.4363178802
0.05918536433
0.0716571012
0.4319553537
0.1019798595
0.2185337081
0.4775160128
0.1153417468
0.3105045226
0.3167725759
0.1054588329
0.3543235491
0.260913611
0.06687497071
0.03741739273
0.02447065333
0.7982651875
-0.259635174
-0.01476248366
0.6541830682
-0.996240444
-0.01883375958
0.4642599918
-1.364970318
-0.03697297209
0.2468154873
-1.850549021
-0.03421829826
0.03030350772
-1.92630821
-0.04911711088
-0.1800054369
-2.055865388
-0.05198101791
-0.346446908
-1.816132614
-0.06757967396
-0.4611190546
-1.636342644
-0.07239506279
-0.515572219
-1.20156592
-0.07782164661
-0.5155042086
-0.882877147
-0.07484686193
-0.4808879368
-0.4317412687
-0.0670229848
-0.4181590078
-0.1420892202
-0.0478378169
-0.3280191426
0.2203283634
-0.02031856384
-0.213479928
0.3945484516
0.01832979147
-0.0773281117
0.6207939806
0.05741104048
0.0626338425
0.6164606317
0.09022874463
0.1784445014
0.6427173407
0.09810724446
0.2502561175
0.4413516446
0.08935050542
0.2836962652
0.3386969739
0.0558946637
0.06125296932
0.0211286009
0.4914448557
-0.2904847819
-0.01012739858
0.4006300919
-1.081769759
-0.0117403413
0.2823540095
-1.487970883
-0.02487274592
0.1489906661
-1.99802843
-0.02175638372
0.01785633658
-2.081897878
-0.03322147838
-0.1105064143
-2.216414934
-0.03339813604
-0.2128492205
-1.966275552
-0.04509563667
-0.2839408057
-1.767052264
-0.04514103698
-0.3180713424
-1.296834357
-0.04868330282
-0.3190007831
-0.9376046408
-0.04353360883
-0.2983513064
-0.4383034898
-0.03820112929
-0.2589272262
-0.1052398373
-0.02509320161
-0.2019699253
0.2979773157
-0.006998522258
-0.1305885207
0.499807571
0.01692428182
-0.04607785572
0.7425466613
0.04184105197
0.04072140711
0.7368192625
0.06095863439
0.1129716701
0.7493812798
0.06646206947
0.156545401
0.5205520694
0.05876036119
0.1769069381
0.38713411
0.03776236908
0.07668845787
0.01343748439
0.1733479735
-0.002558314444
0.1428116032
-0.004018972637
0.101777427
-0.006328398576
0.05521802074
-0.006305607415
0.008162831036
-0.00824788122
-0.03847798797
-0.01015109451
-0.07692553646
-0.01244334615
-0.1025027889
-0.01433031169
-0.1143908275
-0.01434218317
-0.1143198297
-0.01423660612
-0.1062273019
-0.01186230257
-0.09159684686
-0.008173190245
-0.07013241159
-0.002165135404
-0.04466209129
0.005965267035
-0.01533054091
0.01364255295
0.01418641692
0.02092053025
0.03892896644
0.02189345761
0.05398514425
0.02045822105
0.06153193091
0.0123360284
0.005036305341
1.094591291
-0.02361630895
0.04508002435
1.082578049
-0.06918821648
0.2627899071
1.063198277
-0.08949961188
0.2463982612
0.8337942035
-0.1012722259
0.3144220183
0.4333244679
-0.08476786618
0.1603226189
-0.2575360617
-0.07583124391
0.08735455331
-1.087462379
-0.03810102446
-0.08137558533
-1.86972485
0.01536733737
-0.1685950407
-2.35577323
0.1167793587
-0.2717622718
-2.43080153
0.2348566877
-0.3202972781
-2.052479793
0.3772673382
-0.3721149157
-1.300881058
0.4948954598
-0.395225329
-0.3684980913
0.5690531697
-0.4147657961
0.5052174685
0.5632542488
-0.4022586397
1.14302493
0.4938885767
-0.3869408256
1.411290264
0.3638298938
-0.3325355767
1.350815484
0.2340291856
-0.3013669066
1.0953655
0.118444406
-0.2223611865
0.8408468815
0.04927399658
-0.1624175221
0.002320939185
-0.05523202657
1.072188262
-0.03869675606
0.04257970004
1.068354624
-0.1184650284
0.2575349078
1.05891677
-0.1506684141
0.2367811125
0.8376265558
-0.1740058165
0.3029255655
0.4429302946
-0.1442429733
0.1462970155
-0.2391357398
-0.1335458186
0.07419161057
-1.055119683
-0.06679802647
-0.09203783518
-1.820090401
0.03096551149
-0.1782628057
-2.291566293
0.2225186456
-0.2804870224
-2.361704097
0.446732964
-0.3313169916
-1.992962746
0.7166568587
-0.3856195403
-1.266372499
0.9365963869
-0.4124165535
-0.369255872
1.074306887
-0.4336890794
0.4700477706
1.059843693
-0.4224349378
1.082351002
0.9283460261
-0.4063380767
1.34517407
0.680801499
-0.350648327
1.293842617
0.4392545717
-0.3167318555
1.055591088
0.2228468894
-0.2342045523
0.8180748124
0.09432221568
-0.169988562
0.004805225126
-0.05795649291
1.034923915
-0.03911717802
0.03839856423
1.044928424
-0.1319651608
0.2466170495
1.052155711
-0.1619041135
0.2191064578
0.8442273803
-0.1949398808
0.2806738718
0.4586457855
-0.1596877729
0.120378384
-0.2081192729
-0.1585292767
0.04993887998
-0.9974210963
-0.07683659779
-0.112768337
-1.730141493
0.04846620318
-0.1962356184
-2.173642591
0.3089399923
-0.2984612594
-2.234645049
0.6152227444
-0.352389113
-1.883988083
0.9853316384
-0.41313172
-1.203764336
1.279631403
-0.4451436187
-0.3717224705
1.46372236
-0.4705224821
0.4037002645
1.435762684
-0.460122513
0.9699539238
1.254989948
-0.4428681761
1.223884749
0.9151837534
-0.3837228599
1.189757252
0.5926461014
-0.3451779092
0.982735332
0.3008961557
-0.2558362829
0.7761549761
0.1311231647
-0.1844579146
0.00742160449
-0.06267857546
0.9943783726
-0.02198115544
0.03123821591
1.019117096
-0.10226359
0.2311847669
1.044962044
-0.11324554
0.1920743202
0.8504540574
-0.1525320079
0.2494604748
0.4756760939
-0.1215294974
0.08371940005
-0.1703489583
-0.1428009808
0.0165097841
-0.9218510953
-0.06447683626
-0.1372113101
-1.608745605
0.0670442054
-0.2185425854
-2.013669551
0.3661305322
-0.3195647999
-2.062746952
0.7209531989
-0.3804902925
-1.73819143
1.153039286
-0.4480163095
-1.12251454
1.489498245
-0.489383109
-0.3780821039
1.698121647
-0.5188837332
0.3105669278
1.654071229
-0.5104008735
0.8175564109
1.442146756
-0.4901300989
1.060255005
1.046937837
-0.4259862955
1.05056931
0.6793769475
-0.3807322058
0.8853140133
0.3437029141
-0.2832699932
0.7191929995
0.1558310899
-0.2028919342
0.009323548668
-0.06890188039
0.9634308198
0.01059559267
0.02353933224
0.9984573622
-0.03251668806
0.209944758
1.03718344
-0.01034183238
0.1587677416
0.8500274483
-0.05030447494
0.2098911711
0.4850853231
-0.03028950334
0.04090086348
-0.1370213879
-0.08816784517
-0.019271635
-0.8404135361
-0.02948189349
-0.1667473377
-1.471378013
0.08429483854
-0.2433594664
-1.828569738
0.3894173592
-0.3457830053
-1.862757946
0.7522370846
-0.4126428454
-1.569256438
1.204930229
-0.4911396075
-1.030146307
1.548487435
-0.5398257478
-0.3884818919
1.761421604
-0.574507503
0.2010706241
1.701477104
-0.5648685034
0.6427189325
1.480869628
-0.5406175457
0.8725464634
1.070713432
-0.4691259615
0.89227977
0.6964180812
-0.4169297575
0.7750628765
0.3493155721
-0.3102871289
0.6530803964
0.1651575225
-0.2211287324
0.009075455695
-0.07466032419
0.9564198625
0.05485982179
0.01320267189
0.9923840211
0.06629580322
0.1852853743
1.032862074
0.1358976954
0.1183693827
0.8428548578
0.0960051158
0.1643778178
0.4815653421
0.1025194916
-0.007662093869
-0.1156762252
-0.006217603966
-0.05619775312
-0.766415985
0.02323020394
-0.1956108678
-1.332371431
0.09986856356
-0.2662925636
-1.638268201
0.3769428241
-0.3687696187
-1.656008902
0.7097851839
-0.4442601103
-1.396172844
1.142060251
-0.5303950076
-0.9391644113
1.46104133
-0.5886429757
-0.4052820722
1.660932731
-0.6251327837
0.08449388056
1.591184351
-0.6137425932
0.4622576009
1.384249678
-0.5825482896
0.679501275
0.9937268469
-0.5033597812
0.7305612456
0.6502724513
-0.4435896367
0.6627886621
0.3202455176
-0.3299848469
0.5848504166
0.1587275682
-0.2337623089
0.006054171422
-0.0789588586
0.9808987219
0.09821402269
0.002544402713
1.00506684
0.1687186175
0.1552011536
1.032319956
0.2841406092
0.07530056742
0.8255201865
0.245613985
0.1121705121
0.4568918011
0.2349996315
-0.05678347257
-0.1143842034
0.08750876706
-0.09362655354
-0.7091462852
0.08103180856
-0.2234097719
-1.209063843
0.1074616825
-0.2871506378
-1.462271374
0.3330792068
-0.3904786182
-1.461294496
0.6070714222
-0.4707763459
-1.232596627
0.9869578492
-0.5665078266
-0.8544451861
1.25428082
-0.6278205385
-0.4233617117
1.430770704
-0.6645956944
-0.02612242123
1.358295408
-0.6470908503
0.2925451772
1.184686702
-0.6073129431
0.4998706386
0.8379674704
-0.5187060016
0.5809091932
0.5566936794
-0.453017348
0.5589877335
0.2640219886
-0.3348184062
0.522056215
0.1403075125
-0.2369714403
0.0003100662648
-0.0793131375
1.04026901
0.1335125351
-0.01067370337
1.039159378
0.2494429128
0.1233193745
1.036641538
0.404748088
0.03052881572
0.8003241636
0.361004023
0.06088540019
0.4167490738
0.3365085157
-0.1047632257
-0.131630207
0.1608833048
-0.1277958468
-0.6763243512
0.1202050831
-0.2471754132
-1.114310572
0.09656451239
-0.3039418348
-1.316437223
0.2634901209
-0.4039280267
-1.295385317
0.4658861156
-0.4888628469
-1.093342066
0.7728357831
-0.5858831228
-0.7848545758
0.9725105483
-0.6503038281
-0.4421274468
1.117555907
-0.6822122664
-0.1228343131
1.046404766
-0.6572754329
0.1460861567
0.9219049358
-0.6060822751
0.3466111536
0.635945178
-0.5087631112
0.4533740677
0.4357678932
-0.438451634
0.4716752089
0.1946220615
-0.3198867983
0.4694393936
0.1167065518
-0.2264802117
-0.006600784082
-0.07498071752
1.125152364
0.1537202498
-0.02380101411
1.088290743
0.2881847777
0.08892194896
1.041652156
0.4672837242
-0.01338487204
0.7658439821
0.4082003001
0.01186669919
0.3616876701
0.3738868925
-0.1485711197
-0.1693226689
0.1832776117
-0.1589632888
-0.6681992382
0.1223387062
-0.2672240123
-1.049434201
0.06283802823
-0.3156632854
-1.206207526
0.1779253436
-0.4112781716
-1.167231065
0.3077342
-0.4940614023
-0.9856230658
0.5389655852
-0.5900819845
-0.7314614899
0.6638017723
-0.649844026
-0.4576713502
0.7756234105
-0.6738259233
-0.1991366265
0.7086532915
-0.6374378175
0.03485491404
0.6400161668
-0.5735897443
0.2302209836
0.4275076355
-0.4678706593
0.357666411
0.3136160325
-0.3954403696
0.4062439083
0.1256249716
-0.2821149681
0.4298622177
0.09305211183
-0.2011897828
-0.01380849728
-0.06506214071
1.226860992
0.1569835175
-0.03571824189
1.148035146
0.2752039127
0.05498649011
1.046418544
0.4582205866
-0.05675879857
0.7272546874
0.3732031079
-0.03305054683
0.2997689434
0.3334111845
-0.1837922174
-0.2192796513
0.1388352007
-0.184863851
-0.6806708911
0.07646273144
-0.2804164549
-1.013344088
-0.0005672566574
-0.3213506299
-1.132781307
0.08044451756
-0.408716716
-1.079078187
0.150353105
-0.4860436619
-0.9134217704
0.3157239489
-0.5752190888
-0.6977681294
0.3798172818
-0.6262496168
-0.4707382288
0.4673736723
-0.6378703461
-0.2523441808
0.4073850151
-0.5879463432
-0.04086167849
0.3923579235
-0.5117333426
0.1513433673
0.2451714573
-0.399655716
0.2926033104
0.2078890457
-0.3284074596
0.36167455
0.06624982243
-0.2249611452
0.402747347
0.07436581785
-0.1627204896
-0.02028286526
-0.05013040108
1.323574938
0.1424905758
-0.04569280194
1.202822587
0.2081670662
0.02265134874
1.041719422
0.3702866909
-0.09416498403
0.6819213234
0.2494607856
-0.07310068237
0.2343688429
0.2070528861
-0.2110584428
-0.2731188083
0.02004027388
-0.2042771025
-0.701763482
-0.02326004869
-0.2880257478
-0.9948039485
-0.1033651855
-0.3201992986
-1.086102278
-0.02704087715
-0.3985279386
-1.021673245
0.00387614949
-0.4655296804
-0.8660985529
0.1257690241
-0.5419335506
-0.6756804194
0.1443770528
-0.5799475747
-0.4770244023
0.2187934964
-0.5759319343
-0.2809937692
0.1683088251
-0.5114640785
-0.08246531001
0.19980865
-0.423093487
0.107679735
0.1053120687
-0.3080312016
0.254754301
0.1300664829
-0.2399695551
0.3347309047
0.02345272485
-0.1520914942
0.3850901392
0.0642889298
-0.1127303879
-0.02467142852
-0.03173798101
1.402820616
0.1099840507
-0.05200832039
1.244801627
0.09164795072
-0.004995445941
1.026159623
0.2061798675
-0.1210545086
0.633733603
0.04305793991
-0.103544142
0.1719705391
0.002591484847
-0.2246637991
-0.321145104
-0.1780954799
-0.2158092351
-0.7217357124
-0.1887687632
-0.287677046
-0.9828583275
-0.2461313835
-0.3127465771
-1.056084409
-0.1503620186
-0.3802883264
-0.9864986528
-0.1270586838
-0.4338757467
-0.8404314349
-0.02021544855
-0.4942966608
-0.6638583063
-0.02262942595
-0.5162094199
-0.4789429474
0.04974832613
-0.4965244551
-0.2913743989
0.01173750443
-0.4181756577
-0.09764365126
0.07917633152
-0.3217701459
0.0903406396
0.02154881898
-0.2051449516
0.2384914961
0.0882575515
-0.1438089031
0.3223894911
0.0027710423
-0.07258832506
0.3755808474
0.06479537437
-0.05951090672
-0.02655333861
-0.01121096553
1.442256132
0.06105228035
-0.05711182102
1.255154469
-0.06675824107
-0.02954555173
0.9911227621
-0.02089226744
-0.1420846246
0.5798738244
-0.2406641976
-0.1251825032
0.1179126922
-0.2840271511
-0.2315670481
-0.35488277
-0.4505682277
-0.2181262914
-0.7274135887
-0.4121386366
-0.2817195767
-0.9622550422
-0.427535189
-0.2985764209
-1.023910624
-0.289101614
-0.3547175037
-0.9545962962
-0.2439617491
-0.3933896577
-0.8194122675
-0.1235030212
-0.4348905783
-0.6502438076
-0.1198818847
-0.4381197875
-0.4709270639
-0.03011310323
-0.4023379481
-0.2848683768
-0.05226699533
-0.3140802834
-0.09300066576
0.03765732466
-0.2105819165
0.08975021796
0.0002160020905
-0.09823941873
0.2346080745
0.08824047047
-0.04336775324
0.3163775913
0.006997276357
0.006012223423
0.366681856
0.07713379283
-0.004729548411
-0.02509386517
0.007871955819
1.43562292
-0.001709349615
-0.05703257703
1.229954478
-0.2607850237
-0.04744642465
0.9365158348
-0.3060986634
-0.1490081742
0.5239062859
-0.5821348306
-0.135822647
0.07614231916
-0.628322028
-0.2229081846
-0.3689662622
-0.7751236839
-0.2103746457
-0.7123420766
-0.681319854
-0.2632514515
-0.9239555832
-0.6430347754
-0.2754905685
-0.9808811138
-0.4442809599
-0.3176040761
-0.9191410208
-0.3560292871
-0.3438263356
-0.7965471086
-0.1918832379
-0.3691070733
-0.6340032157
-0.158701269
-0.354865211
-0.4565502408
-0.03554238326
-0.3080168675
-0.2700050464
-0.03953097001
-0.2132170026
-0.0784164631
0.07134316064
-0.1102679503
0.09820833633
0.03556926332
-0.003768837748
0.2366497139
0.1307470626
0.04319986575
0.3135894218
0.0373953311
0.07733093606
0.3586171462
0.1027253471
0.04139189078
-0.0204312
0.02476059655
1.363973521
-0.07236334178
-0.05683209494
1.153380995
-0.469645048
-0.05719306243
0.8536834938
-0.6129806591
-0.1512374768
0.460472979
-0.9471844052
-0.1371794678
0.045995717
-0.9981931399
-0.2117064908
-0.3590003323
-1.12608513
-0.1958576571
-0.6664265302
-0.9766979888
-0.2425808253
-0.8554833497
-0.8831624731
-0.2454935085
-0.9126956086
-0.6157747768
-0.2771482599
-0.8621422699
-0.46665893
-0.2871361426
-0.7519626058
-0.2369856587
-0.2974323261
-0.5997184235
-0.1507121359
-0.2696548348
-0.4281859132
0.01747448095
-0.214213665
-0.2453545238
0.03713590513
-0.1197984344
-0.05983098926
0.1672515811
-0.01846399624
0.106716334
0.1254905985
0.08080857197
0.2335988257
0.2107890622
0.1192493149
0.302598918
0.09326543545
0.1317493937
0.3400020001
0.1405002965
0.08000974382
-0.01219246741
0.03579882009
1.230847761
-0.1441123515
-0.05001253887
1.030539371
-0.6686791136
-0.05973381507
0.7471178388
-0.9037936475
-0.136457492
0.3932791301
-1.291534055
-0.127157334
0.02761344709
-1.350684413
-0.1827487011
-0.325314741
-1.462804969
-0.1723930005
-0.5921562916
-1.269017685
-0.2069533285
-0.7585813231
-1.123998098
-0.2096067846
-0.8171867255
-0.7898465819
-0.2276996955
-0.7799286635
-0.5743028476
-0.2293272181
-0.6851231245
-0.2685692536
-0.2269501016
-0.5486937699
-0.1175135545
-0.1938555029
-0.3890177454
0.1037884979
-0.1385555967
-0.2174211318
0.1541868187
-0.04991220087
-0.04293221235
0.3016585641
0.04223145148
0.1092315607
0.2481298432
0.1311409679
0.2234526083
0.3158044512
0.1579540759
0.2831983684
0.1657804197
0.1600415751
0.3135213758
0.1872050546
0.09757928473
-0.001431563768
0.04243949354
1.028879795
-0.2050381902
-0.04425844071
0.8539873354
-0.8378905453
-0.05335692468
0.6120487271
-1.148829592
-0.1184090458
0.3171499011
-1.583066131
-0.1076246183
0.01779527844
-1.651436817
-0.1543063604
-0.2706563519
-1.7577503
-0.1423909671
-0.4889167113
-1.532116172
-0.1736923471
-0.6280297109
-1.350071607
-0.1682586355
-0.6812586153
-0.9560813345
-0.1799858289
-0.6555543651
-0.675142033
-0.1701737927
-0.5792590083
-0.2951547679
-0.1614816443
-0.4653869229
-0.07985764839
-0.1268454732
-0.3282112293
0.1966013421
-0.0755023987
-0.1792432822
0.2784772527