/*--------------------------------*- C++ -*----------------------------------*\
| =========                 |                                                 |
| \\      /  F ield         | OpenFOAM: The Open Source CFD Toolbox           |
|  \\    /   O peration     | Version:  5.x                                   |
|   \\  /    A nd           | Web:      www.OpenFOAM.org                      |
|    \\/     M anipulation  |                                                 |
\*---------------------------------------------------------------------------*/
FoamFile
{
    version     2.0;
    format      ascii;
    class       volScalarField;
    location    "1.6";
    object      rho;
}
// * * * * * * * * * * * * * * * * * * * * * * * * * * * * * * * * * * * * * //

dimensions      [1 -3 0 0 0 0 0];

internalField   nonuniform List<scalar> 
30538
(
1.286133136
1.289507419
1.289418807
1.289336134
1.289287845
1.289252767
1.289253532
1.289322958
1.289479993
1.28970497
1.289973937
1.290229714
1.290444314
1.290580142
1.290639774
1.290625107
1.290538858
1.290380987
1.290171041
1.28972065
1.286152503
1.28949553
1.289398411
1.289311259
1.289263683
1.289234055
1.289242625
1.289319292
1.28948257
1.289711294
1.289982449
1.290239108
1.290452798
1.290586558
1.290643525
1.290626767
1.290538841
1.290381023
1.290172581
1.289739277
1.286186909
1.289464349
1.289351951
1.28925672
1.289210447
1.28919055
1.289213028
1.289302747
1.289477266
1.289712854
1.289987768
1.290245916
1.290457965
1.290588279
1.290640923
1.290620259
1.290529288
1.290371573
1.290165192
1.289770256
1.286235038
1.289425316
1.289293884
1.289188563
1.289144207
1.289136193
1.2891766
1.289282184
1.289470846
1.289714726
1.289993915
1.290253183
1.29046314
1.290589703
1.290637591
1.290612006
1.290517301
1.29035974
1.290155865
1.289815382
1.286306099
1.289386141
1.289235447
1.289120324
1.289078528
1.289082827
1.289141396
1.289262696
1.289465364
1.289716926
1.289999134
1.290258035
1.290465231
1.290588571
1.290632174
1.290601864
1.290503803
1.290346678
1.290145498
1.289871788
1.286382318
1.28935412
1.289187723
1.289065477
1.289027267
1.289042824
1.289116068
1.289251316
1.289463644
1.289719318
1.290001118
1.290256959
1.290460096
1.290580801
1.290621314
1.290587729
1.290487662
1.290331954
1.290134065
1.289937794
1.286483795
1.289335921
1.289160667
1.2890359
1.289002864
1.289027705
1.289111824
1.289254041
1.289468213
1.289721302
1.289996935
1.290245713
1.290443027
1.290560864
1.290600132
1.290565538
1.290465948
1.290313563
1.290120573
1.290004103
1.286585492
1.289335606
1.28916006
1.289039603
1.289013016
1.289044553
1.289133692
1.289274351
1.289480509
1.289721843
1.28998358
1.290219831
1.290408796
1.290523445
1.290563269
1.2905307
1.290435127
1.290288881
1.290103687
1.290071974
1.286721422
1.289352693
1.28918589
1.289077271
1.289059155
1.289094964
1.289182649
1.289313158
1.289500673
1.289720245
1.289959233
1.290176434
1.290353745
1.290464365
1.290505922
1.290479063
1.29039212
1.290256232
1.2900824
1.290132432
1.28684793
1.289384918
1.289234721
1.289144623
1.289137051
1.289175023
1.289255625
1.289368961
1.289528386
1.289716842
1.289924273
1.290116111
1.290278589
1.290384501
1.290429349
1.290410809
1.290336037
1.290214044
1.290055622
1.290189257
1.287023581
1.289428353
1.289300099
1.289232756
1.289237317
1.289276509
1.289346865
1.289437929
1.289562753
1.289712617
1.289881346
1.290043157
1.29018683
1.290286071
1.290334428
1.290326407
1.290267033
1.290162836
1.290023537
1.290227287
1.287190424
1.289477665
1.289374315
1.289330754
1.289347731
1.289388375
1.289447243
1.28951439
1.289601728
1.289709033
1.289835179
1.289964443
1.290085217
1.290175435
1.290226224
1.290229702
1.290187645
1.290104027
1.289987034
1.290256654
1.287416707
1.289528085
1.289449967
1.289428192
1.289456657
1.289499036
1.289546967
1.289591007
1.289642769
1.289708905
1.289793021
1.289888489
1.28998418
1.290062382
1.290112965
1.290126665
1.290101945
1.290040174
1.289947323
1.290256848
1.287633927
1.289576289
1.289521295
1.289517667
1.289554893
1.289598064
1.289636312
1.289661079
1.289682856
1.28971327
1.289760446
1.28982259
1.28989295
1.289956876
1.290003955
1.290024721
1.290015296
1.289974411
1.289906183
1.290253145
1.28791564
1.289620288
1.289585183
1.28959388
1.289635875
1.289677814
1.289708061
1.289718413
1.289718811
1.289722271
1.289739329
1.289772358
1.289818769
1.289867177
1.289907629
1.289931485
1.289933596
1.289911245
1.289865989
1.290209692
1.288186324
1.289658166
1.289637865
1.289653049
1.289694905
1.289733659
1.289757947
1.289759828
1.289747783
1.28973384
1.289729468
1.289740039
1.289765908
1.289798971
1.289830628
1.289854067
1.28986349
1.289855574
1.289829879
1.29017149
1.288518421
1.289689262
1.28967804
1.289694416
1.289731506
1.289765059
1.289784932
1.289783584
1.289766908
1.289745126
1.289728885
1.289724786
1.289735017
1.28975477
1.289777029
1.289797227
1.289809938
1.289811499
1.289800408
1.290081485
1.288838958
1.289714227
1.28970806
1.28972188
1.289750778
1.289777102
1.289792546
1.289790825
1.289775336
1.289753902
1.289734923
1.289724583
1.289725951
1.289735525
1.289749077
1.28976394
1.289775955
1.289781859
1.289779733
1.29001294
1.289209486
1.289733606
1.289728147
1.289735134
1.289751233
1.289767297
1.28977777
1.289778049
1.289769836
1.289756265
1.289743281
1.289734621
1.289734374
1.289738527
1.289747683
1.289755251
1.289764698
1.289767638
1.289769069
1.289891936
1.289215903
1.288610618
1.288042266
1.287383505
1.287088466
1.286713076
1.286822959
1.286794995
1.287313847
1.287508384
1.288331087
1.288512481
1.289473634
1.289374441
1.290341101
1.289815266
1.290706901
1.289755068
1.290543256
1.289404754
1.285369344
1.289521206
1.289421746
1.289319423
1.289249936
1.289198188
1.289194087
1.28925847
1.289410609
1.289631009
1.289896251
1.290155138
1.290380583
1.290531358
1.290607018
1.290605022
1.290525616
1.290371859
1.29016869
1.290213006
1.285385621
1.289511869
1.289405534
1.289299612
1.289230271
1.289183178
1.289186036
1.289257767
1.289415981
1.289640052
1.289907147
1.290166282
1.290390144
1.290538504
1.29061115
1.290607336
1.290526618
1.290373115
1.290171157
1.290237999
1.285415101
1.289485316
1.289366825
1.289254299
1.289185492
1.289146735
1.289161997
1.28924658
1.289415876
1.289646397
1.289916574
1.290175851
1.290396577
1.290540673
1.290608435
1.290601399
1.290518462
1.290365444
1.29016543
1.290280161
1.285457879
1.289452149
1.289318569
1.289197667
1.289130251
1.289101753
1.289132558
1.289232695
1.289415645
1.289653889
1.289927174
1.290185538
1.290401724
1.290540633
1.290603208
1.290592097
1.290506975
1.290354899
1.290157408
1.290338789
1.285522942
1.289418928
1.289270289
1.28914119
1.289076235
1.289058123
1.289104895
1.289220014
1.289416218
1.289661174
1.289935791
1.290191124
1.290401395
1.290534955
1.290592969
1.290577851
1.290491639
1.290341526
1.290147204
1.290410576
1.285600273
1.289392105
1.289231275
1.289096653
1.289035022
1.289026923
1.289087169
1.289214561
1.289419701
1.289667431
1.289939417
1.290188512
1.290391233
1.290519528
1.290573802
1.290556245
1.290470763
1.290324341
1.290134448
1.29048745
1.285703518
1.289376577
1.289209213
1.289073375
1.28901661
1.289017986
1.28908901
1.289222393
1.289428495
1.289671913
1.289935302
1.290174017
1.290367238
1.290489865
1.290541605
1.290524279
1.290441892
1.290301466
1.290118347
1.290565319
1.285818843
1.28937705
1.289210833
1.289080916
1.289031587
1.289040887
1.289116299
1.28924742
1.289444494
1.289674316
1.289921482
1.290144829
1.290326148
1.290442618
1.290493323
1.290478969
1.290402507
1.290271117
1.290098116
1.290631481
1.285972211
1.289393884
1.289237062
1.289120149
1.289081016
1.289095692
1.289169615
1.289290632
1.289468549
1.289675285
1.289897797
1.290100236
1.290266868
1.290376442
1.290427217
1.290418417
1.290351408
1.290232541
1.290073109
1.29069107
1.286133272
1.289425767
1.289285715
1.289188027
1.289160895
1.289179482
1.28924719
1.289351499
1.289501249
1.289676085
1.289866111
1.29004234
1.290191875
1.290294021
1.290345943
1.290344696
1.29028981
1.290186033
1.290043476
1.290725989
1.286344634
1.289469158
1.28935116
1.289277031
1.289263698
1.289285796
1.289344294
1.2894269
1.289542189
1.289678532
1.289829915
1.289975719
1.290105269
1.290198811
1.290252062
1.290259741
1.290219062
1.290132832
1.290009725
1.290745149
1.286565521
1.289518893
1.289426299
1.289377164
1.289378552
1.28940438
1.289452529
1.289511483
1.289589771
1.28968442
1.289793609
1.289906445
1.290013142
1.29009658
1.290150567
1.290167472
1.290142257
1.29007492
1.289973063
1.290730395
1.28684463
1.289569884
1.289503614
1.289478034
1.289493605
1.289523226
1.289561514
1.289597479
1.289640373
1.289694483
1.289762964
1.289842103
1.289924573
1.289996279
1.290048828
1.290073198
1.290062544
1.290014375
1.289934516
1.290693845
1.287129826
1.289618331
1.289576481
1.289571266
1.289598451
1.289631243
1.28966069
1.289677092
1.289689552
1.289708367
1.289741112
1.289788594
1.289847428
1.289905836
1.289954271
1.289983021
1.289984173
1.289953949
1.289895824
1.290630797
1.287477855
1.289661402
1.289640232
1.289649773
1.289684709
1.289718716
1.289741135
1.289742864
1.289733131
1.289725008
1.289728873
1.289749793
1.289787038
1.289831368
1.289872857
1.289902608
1.289912096
1.289897156
1.289858751
1.290539887
1.287825676
1.289696736
1.289690492
1.289708725
1.289746547
1.289779813
1.289796965
1.289789958
1.289767186
1.289741749
1.289725819
1.289726881
1.289746486
1.289777067
1.289810242
1.289837664
1.289852035
1.289848198
1.289826248
1.290435431
1.288233464
1.2897231
1.28972498
1.289745918
1.289781524
1.289811561
1.289825132
1.289814957
1.289787906
1.289755612
1.289729871
1.289718759
1.289725305
1.289744087
1.289768317
1.289791317
1.289806847
1.28981001
1.289800056
1.290295083
1.288635763
1.289741083
1.289745804
1.289764353
1.289793283
1.289817529
1.289827853
1.28981847
1.289794175
1.289764241
1.289738181
1.289723062
1.289722462
1.289732317
1.289747951
1.289764819
1.289778206
1.28978428
1.289781601
1.290160452
1.289086925
1.289751408
1.289752481
1.289762981
1.289778732
1.289794176
1.28980085
1.289796795
1.289782816
1.289764084
1.28974697
1.289735744
1.289734577
1.289739482
1.289751215
1.289759759
1.289770276
1.289771761
1.289772305
1.289987245
1.28897811
1.288465263
1.28752851
1.28697066
1.28638068
1.286184113
1.286120192
1.286332886
1.286836944
1.287256096
1.288200616
1.288508463
1.289680736
1.289561221
1.290786646
1.290045111
1.291201326
1.289857924
1.290911606
1.289310647
1.284312989
1.289544744
1.289436533
1.289307599
1.289210402
1.289135889
1.289127806
1.289187967
1.289335775
1.289551419
1.289814452
1.29008051
1.290324286
1.290499593
1.290598555
1.290611604
1.290535616
1.290379756
1.290174597
1.291224452
1.284325671
1.289539706
1.289426893
1.289294925
1.289198156
1.289126521
1.289124268
1.289190937
1.289344182
1.289563099
1.289827279
1.29009227
1.290333245
1.290505005
1.290600877
1.290612725
1.290536773
1.290381803
1.290178171
1.291256282
1.284343984
1.289520732
1.28939969
1.289262403
1.289166441
1.289100261
1.289108269
1.289186386
1.28934939
1.289573935
1.289839679
1.290102075
1.290337381
1.290502725
1.290593559
1.290603461
1.290527828
1.290374896
1.290173583
1.291317802
1.284379436
1.289496895
1.28936548
1.289221941
1.289127152
1.289068421
1.289089063
1.289181117
1.289355946
1.289586547
1.289852868
1.290110433
1.290337175
1.290494568
1.29057964
1.290587527
1.290513241
1.290363773
1.290165893
1.291393041
1.284434738
1.289472549
1.289330936
1.2891819
1.289089015
1.289039069
1.289072223
1.289177652
1.289363402
1.289598226
1.28986234
1.290112027
1.290327693
1.290476387
1.290555897
1.290562307
1.29049119
1.290347204
1.290154414
1.291489752
1.28450998
1.289452427
1.289303037
1.289151078
1.289061412
1.289020524
1.289065041
1.289180233
1.289372901
1.289607199
1.289864379
1.290102399
1.290304817
1.290444462
1.290519046
1.290525244
1.290459609
1.290323591
1.290138481
1.291582352
1.284619749
1.289441012
1.289288282
1.289137888
1.289053899
1.289022463
1.289075175
1.289194608
1.289386828
1.289613011
1.289856864
1.29007898
1.290266145
1.290396358
1.290467051
1.290474751
1.29041681
1.290291728
1.290117501
1.291670083
1.284745328
1.289442367
1.28929345
1.289150558
1.289075543
1.289052688
1.289108832
1.289225279
1.289407202
1.289616733
1.289839873
1.290041746
1.29021158
1.290331716
1.290399418
1.290411095
1.290362798
1.290251255
1.29009119
1.291741066
1.284931084
1.28945899
1.289320659
1.289192029
1.289128202
1.289113129
1.289167641
1.289273992
1.289435805
1.28962026
1.289815868
1.289993146
1.290143807
1.290253114
1.290318635
1.290335871
1.290298736
1.29020286
1.290059903
1.291777085
1.285117512
1.289490106
1.289368566
1.289260796
1.289210167
1.289201935
1.289250607
1.289340594
1.289474048
1.289625954
1.289787927
1.28993736
1.290067558
1.290165659
1.290229322
1.290252561
1.290227418
1.290148398
1.290024905
1.29179084
1.285398742
1.289533021
1.28943339
1.289351074
1.289315834
1.289313673
1.289353714
1.289422437
1.289522214
1.289636433
1.289760343
1.289879288
1.289987686
1.290073924
1.290135548
1.290164528
1.290151351
1.290089892
1.289987171
1.291743047
1.285660054
1.289582732
1.289509457
1.289454058
1.289435645
1.289439342
1.28946945
1.28951483
1.289578502
1.289652948
1.289736998
1.289824013
1.289909699
1.289983835
1.290042746
1.290076283
1.290074202
1.29002972
1.289948222
1.291680561
1.286044813
1.289634469
1.289588999
1.2895596
1.289557806
1.289567777
1.289588504
1.289610756
1.289639512
1.289675025
1.289720724
1.289776557
1.289839688
1.289901403
1.289956171
1.289992409
1.289999584
1.289970533
1.28990913
1.291535024
1.28638712
1.2896834
1.289664089
1.289657896
1.289670728
1.289686416
1.289699339
1.289701509
1.289699478
1.289700939
1.289713071
1.289740763
1.289782801
1.289831982
1.289880994
1.289917285
1.28993145
1.289915438
1.289872379
1.291401519
1.286869769
1.289725368
1.2897279
1.289739318
1.289763456
1.289783322
1.289790548
1.289777252
1.289752252
1.289727281
1.289713393
1.289717997
1.289742017
1.289779148
1.289820795
1.289855056
1.289873183
1.289867144
1.289839401
1.291171603
1.287287219
1.289756726
1.289773774
1.289796828
1.28982714
1.289849437
1.289852632
1.289830372
1.289791643
1.289750539
1.289719853
1.289708376
1.289718404
1.28974455
1.289778257
1.289808613
1.289827714
1.289828318
1.289812627
1.290984018
1.287845079
1.289775829
1.289799114
1.289826677
1.289858065
1.289879923
1.289881072
1.289856226
1.289814053
1.289767664
1.289730169
1.289710279
1.289710987
1.28972773
1.289753145
1.289777625
1.289795125
1.28979954
1.289792157
1.290695959
1.288322105
1.289782659
1.289805072
1.289830258
1.289857122
1.289875676
1.289875825
1.289854177
1.289817336
1.289775983
1.289741199
1.289720404
1.289716592
1.289726225
1.289743598
1.289761308
1.289775129
1.28978064
1.289778221
1.290475051
1.288929945
1.289777519
1.289790368
1.289803833
1.289819921
1.289830461
1.289832242
1.289819626
1.289798686
1.289772532
1.289750236
1.289735376
1.28973305
1.28973929
1.289752154
1.289762438
1.289771754
1.289772843
1.289771546
1.290151887
1.289064953
1.287800441
1.28724733
1.2859426
1.285855717
1.285099098
1.285607262
1.285552614
1.286553011
1.286967225
1.28824121
1.288751323
1.290043467
1.290243731
1.291344284
1.290927218
1.291698423
1.29057913
1.291090586
1.289691822
1.2817759
1.289566058
1.289467975
1.289322708
1.289214352
1.289128247
1.289115035
1.289170704
1.289311549
1.289520666
1.289780729
1.290055054
1.290316371
1.290516032
1.290633203
1.29065343
1.290571622
1.29040393
1.290189588
1.293133036
1.281771425
1.289564949
1.289463434
1.289315769
1.289206821
1.289122484
1.289113734
1.28917485
1.289320276
1.289531917
1.289791971
1.290063447
1.290320453
1.290515926
1.290630848
1.290651354
1.290571724
1.290406381
1.29019466
1.293195622
1.281758027
1.289552796
1.289445412
1.289293603
1.289183771
1.28910281
1.289101961
1.289172608
1.289326264
1.28954216
1.289801392
1.290066833
1.290315218
1.29050281
1.290613871
1.290635327
1.290560184
1.290399778
1.290191454
1.293311791
1.281753002
1.289537252
1.289422632
1.289266161
1.289155818
1.289079497
1.289088382
1.289170904
1.289334233
1.289554007
1.28981022
1.290066028
1.290301815
1.290479023
1.290585438
1.290608794
1.290540539
1.290387685
1.290184857
1.293460215
1.281768097
1.289521227
1.289399525
1.28923947
1.28912972
1.289059221
1.289078019
1.289172132
1.289343713
1.289564581
1.289813971
1.290056157
1.29027607
1.290441393
1.29054307
1.290569382
1.290510326
1.290367974
1.290173311
1.293633978
1.281819934
1.289507948
1.289381288
1.289220333
1.289113226
1.289049629
1.289077422
1.289179676
1.289355258
1.289571848
1.289809247
1.290033799
1.290235208
1.290387921
1.290484992
1.290515186
1.290467443
1.290338625
1.290155467
1.293791548
1.281924304
1.28950136
1.289373676
1.289216282
1.289114835
1.289058967
1.289093083
1.289198075
1.289370707
1.289575712
1.289795106
1.289998403
1.290179258
1.290318647
1.290411473
1.290446445
1.290411051
1.290298201
1.290130172
1.293931695
1.28208474
1.289505663
1.289382761
1.289234667
1.289141955
1.289093863
1.28913067
1.289231537
1.289392193
1.289578125
1.289773112
1.289951914
1.290110808
1.290236322
1.290324926
1.290365052
1.290342235
1.290247034
1.29009748
1.294006569
1.282325796
1.289524082
1.289412016
1.289279509
1.289197724
1.289157068
1.289192135
1.289282117
1.289422222
1.289581785
1.289747334
1.28989887
1.290035011
1.290146198
1.290230118
1.290274684
1.290263913
1.290187019
1.290058408
1.294030882
1.282627189
1.289556122
1.289460787
1.289350117
1.289280907
1.289247441
1.289277143
1.289350161
1.289462711
1.289589894
1.289721896
1.289844476
1.289957537
1.290054104
1.290132786
1.290180247
1.290180212
1.29012117
1.290014895
1.293951903
1.283036773
1.289599271
1.289526725
1.289442055
1.289387235
1.289360777
1.289382092
1.289433427
1.289513821
1.289605102
1.289701199
1.289793833
1.289883803
1.289965796
1.290038083
1.290086588
1.290095246
1.290052781
1.289968868
1.293813611
1.283491073
1.289649813
1.289604985
1.289547702
1.289509038
1.289489524
1.289500579
1.289528133
1.289574147
1.289628174
1.289688172
1.289751173
1.28981881
1.289886678
1.289951459
1.289998777
1.290013726
1.289985477
1.28992272
1.29357022
1.284066409
1.289703146
1.289687241
1.289656931
1.289635281
1.289622243
1.289622889
1.289627022
1.289639385
1.289657344
1.28968356
1.289719065
1.289766258
1.289820466
1.289876496
1.289920475
1.289938841
1.289922362
1.289878644
1.29327031
1.284656809
1.289753447
1.289764544
1.289758748
1.289753139
1.289746154
1.289737501
1.289720961
1.289703433
1.289689836
1.289686917
1.289699093
1.289728475
1.289769734
1.289816504
1.289855577
1.289874952
1.289867235
1.28983974
1.2928927
1.285377219
1.289794867
1.289827242
1.289840877
1.289848947
1.289846985
1.289831474
1.289799037
1.289758842
1.289721431
1.289696714
1.289690966
1.289705852
1.289736041
1.289773796
1.289806712
1.289825205
1.289823501
1.289808261
1.292469054
1.286065988
1.289822516
1.289867412
1.289894403
1.289911731
1.289913923
1.289894641
1.289853045
1.289799845
1.28974857
1.289710674
1.289693191
1.289697307
1.289718318
1.289747646
1.289774362
1.289790833
1.289792612
1.289785651
1.292016856
1.286887752
1.289833873
1.289881907
1.289914441
1.289936108
1.289940523
1.289921046
1.289877983
1.289822463
1.289767931
1.289725858
1.289702978
1.289700182
1.289713879
1.2897359
1.289756939
1.289770323
1.289773729
1.28977144
1.291517016
1.287636297
1.289828537
1.289870531
1.289900552
1.289920732
1.28992581
1.289909292
1.289872443
1.289824582
1.28977718
1.289739602
1.289717703
1.289712451
1.289720535
1.289736069
1.289750739
1.289760771
1.289764193
1.289764246
1.291040778
1.288518719
1.289806427
1.289828495
1.289845285
1.28985342
1.289857311
1.289846472
1.289827008
1.289799765
1.289772298
1.289749566
1.28973495
1.289733425
1.289739429
1.289752424
1.289760249
1.289766972
1.289765337
1.289764313
1.290502485
1.288294903
1.287300335
1.285568133
1.28455467
1.283491486
1.283310887
1.283238744
1.28400231
1.284957001
1.286151628
1.287835054
1.288828372
1.290841701
1.291016861
1.293019748
1.291880746
1.293550126
1.291070525
1.292399167
1.289412746
1.279116854
1.289583781
1.289512713
1.289372525
1.28926906
1.28918816
1.289177763
1.289231678
1.289363257
1.289558519
1.289809694
1.290082657
1.290348968
1.290559605
1.290684661
1.29070589
1.290614018
1.290431862
1.290204375
1.295882944
1.279093538
1.289584951
1.289511146
1.289368276
1.289263419
1.289183682
1.289176462
1.289234837
1.289370001
1.289566806
1.289816285
1.290085043
1.290346177
1.290552784
1.290676688
1.290699928
1.290612369
1.290434175
1.290211225
1.29597764
1.279025925
1.289576681
1.289498338
1.289350904
1.289243676
1.289166369
1.28916476
1.289231105
1.289372757
1.289571923
1.289817772
1.290077721
1.290328675
1.290527546
1.290649365
1.290676716
1.290597567
1.290427158
1.290209268
1.296190138
1.278976145
1.289566133
1.289481989
1.289329367
1.289220079
1.289146018
1.289151931
1.289228169
1.289377124
1.289577538
1.289816736
1.290063205
1.290299163
1.290487254
1.290606756
1.290640413
1.290573176
1.29041414
1.290203786
1.296421932
1.278926676
1.289555179
1.289465461
1.289308974
1.289198792
1.289128876
1.289143116
1.289229035
1.289383236
1.289581722
1.289810025
1.290038437
1.290255918
1.290431251
1.290548495
1.290589794
1.290537121
1.290392825
1.290193009
1.296724144
1.278944223
1.289546832
1.289453298
1.289295863
1.289187202
1.289122413
1.289144355
1.289236627
1.289391644
1.289583136
1.289795131
1.29000144
1.290197694
1.290359491
1.290474339
1.290523897
1.290487082
1.290360512
1.290174847
1.296964285
1.279031052
1.289544861
1.289450814
1.289297318
1.289193154
1.289134236
1.289161014
1.289254682
1.289403813
1.289582108
1.289772745
1.289953778
1.290127519
1.290274374
1.290386042
1.290443358
1.290421788
1.290314966
1.29014725
1.297173847
1.279196599
1.289553484
1.289463971
1.28931986
1.289223151
1.289170099
1.28919826
1.289286126
1.289421743
1.289580325
1.289744152
1.289897246
1.290048523
1.290180353
1.290287106
1.29035019
1.290342492
1.290256075
1.290109618
1.297275684
1.279511414
1.289575699
1.289496492
1.289367895
1.289280533
1.289232385
1.289257206
1.289332365
1.289447937
1.289580571
1.28971518
1.289840291
1.289967537
1.290082748
1.290182823
1.290248506
1.290252206
1.290185603
1.290062726
1.297241725
1.279881807
1.289609984
1.28954798
1.289440623
1.289364128
1.289320027
1.289337193
1.289393814
1.289483902
1.289586144
1.289689538
1.289787338
1.289889837
1.289987971
1.290078914
1.290143613
1.29015575
1.290107169
1.290009118
1.297099508
1.280478919
1.289655607
1.289616762
1.289534252
1.289469803
1.289428738
1.289435059
1.289469104
1.289529459
1.289598862
1.289671205
1.289742682
1.289820887
1.289901525
1.289981141
1.290041354
1.29005846
1.290025603
1.289952169
1.296748308
1.281064478
1.289708598
1.289697672
1.289641783
1.289590044
1.289551416
1.289544791
1.289554679
1.289583098
1.289619269
1.289661423
1.289708357
1.289764747
1.289828241
1.28989475
1.289947505
1.289966248
1.289946055
1.289896122
1.296345682
1.281935467
1.289765051
1.289781899
1.289752492
1.289714143
1.289677713
1.289657832
1.289643435
1.289641451
1.289646423
1.289660783
1.289685346
1.289723213
1.289770939
1.289823598
1.289866703
1.289884105
1.289873616
1.289844398
1.295701017
1.282699516
1.289816557
1.289859285
1.289853952
1.289829411
1.289795363
1.289762531
1.289727045
1.289698496
1.289677106
1.289668115
1.289674108
1.28969658
1.289730739
1.289770365
1.289803199
1.289817634
1.289813531
1.289800964
1.295102181
1.283787891
1.289857399
1.289918874
1.289932728
1.28992157
1.289889958
1.289848295
1.289796795
1.289748232
1.28970724
1.289681293
1.28967355
1.289683892
1.289706863
1.289735579
1.289759309
1.289770184
1.289769741
1.289768514
1.294257301
1.284673007
1.289880578
1.289951594
1.289979314
1.289978051
1.289950392
1.289904854
1.289845012
1.289785249
1.289733361
1.28969762
1.289681286
1.289682695
1.289697018
1.289717318
1.289733388
1.289741099
1.289742742
1.289748147
1.293558353
1.285887215
1.28988454
1.289954465
1.289987881
1.289993433
1.289970685
1.289927169
1.289867463
1.289806582
1.289752875
1.289714691
1.289694913
1.289691141
1.289699235
1.289713196
1.289724077
1.289729167
1.289731862
1.289739447
1.292624304
1.28684015
1.289867579
1.289925912
1.289956839
1.289964686
1.289948194
1.2899125
1.289862407
1.289810337
1.289764248
1.289730771
1.289712584
1.289707296
1.289711414
1.289720657
1.28972739
1.289730748
1.289732757
1.289739894
1.291903829
1.288116672
1.289828311
1.289860549
1.289870229
1.289874095
1.289857959
1.289841423
1.289812251
1.289787498
1.289762111
1.289743831
1.289732757
1.289732392
1.289737369
1.289745291
1.289749491
1.289750132
1.289748623
1.289749994
1.290945475
1.288444461
1.285732296
1.284805672
1.282029475
1.282066408
1.28058235
1.281828125
1.282067796
1.284181971
1.285453005
1.287909797
1.289434633
1.291776538
1.2927804
1.29456817
1.294267149
1.295012342
1.292981396
1.292960227
1.290371657
1.274155469
1.289575219
1.289559793
1.289443364
1.289359406
1.2892978
1.289291498
1.289341119
1.289453114
1.289623689
1.289848795
1.290099721
1.290347633
1.290549638
1.290670554
1.290691049
1.290596772
1.290412909
1.290192721
1.30054266
1.274069909
1.28957647
1.28955805
1.28943821
1.289352413
1.289291095
1.289287661
1.289341691
1.28945789
1.289630288
1.289852779
1.290098964
1.290341687
1.290540218
1.290661441
1.290684939
1.290595986
1.290416614
1.290202616
1.300764329
1.273879321
1.289568289
1.289545
1.289419055
1.289330232
1.289269676
1.289272074
1.289334658
1.289457899
1.289632919
1.289850161
1.290086038
1.290318522
1.290509736
1.290631249
1.290661243
1.290582641
1.290412285
1.290202632
1.301201108
1.273685253
1.289557954
1.28952821
1.289395341
1.289303251
1.28924432
1.289255175
1.289328436
1.289459327
1.289635388
1.289844003
1.290065125
1.290283048
1.290464211
1.290585619
1.290624427
1.290560341
1.290402878
1.290199879
1.301745259
1.273466783
1.289547666
1.289511468
1.289373101
1.289278653
1.289222594
1.289242071
1.289325301
1.28946225
1.289635914
1.289832699
1.290035253
1.290234868
1.290404078
1.290525314
1.290573972
1.290526482
1.290385321
1.290191515
1.302377088
1.273366372
1.289541284
1.289500153
1.289359611
1.28926497
1.289212645
1.289238977
1.289328441
1.289466771
1.289633298
1.289813968
1.289995487
1.290173913
1.290329504
1.290449892
1.290508544
1.290478198
1.290355835
1.290174557
1.30290486
1.27336032
1.28954239
1.289500188
1.289363139
1.289269901
1.289221651
1.289251469
1.28934103
1.289474552
1.289628105
1.289788656
1.28994619
1.290101572
1.290242664
1.290360662
1.290428018
1.290413378
1.290311147
1.290145861
1.303345765
1.27355067
1.289555372
1.289517983
1.289389757
1.289300718
1.289254831
1.289282655
1.289365328
1.289486264
1.289620836
1.289758858
1.289891258
1.29002175
1.290147518
1.2902609
1.290333644
1.290332416
1.290250478
1.290104873
1.30351786
1.273943556
1.289582461
1.28955715
1.289442167
1.289358571
1.289313167
1.28933372
1.289402141
1.289503453
1.289614966
1.289727206
1.289833146
1.289939387
1.290049329
1.290155051
1.29022893
1.290237417
1.290174705
1.290052165
1.303472578
1.274546713
1.289623846
1.289615961
1.289518804
1.289442245
1.289395387
1.289403451
1.289451446
1.289527236
1.289612034
1.28969621
1.289776783
1.289860572
1.289953878
1.290049139
1.290119386
1.290133525
1.290088038
1.289991156
1.303086016
1.275419478
1.289677769
1.289691036
1.289616018
1.289547198
1.289497072
1.289488554
1.289511043
1.289557795
1.289613362
1.289669918
1.289727029
1.289790945
1.289867199
1.289948893
1.290010658
1.290026441
1.289996023
1.289925636
1.302447881
1.276439953
1.289739188
1.289776562
1.289725615
1.289665024
1.289610296
1.289583705
1.289577565
1.289594087
1.289620636
1.289652101
1.289688674
1.289735124
1.289794476
1.289859982
1.289909336
1.289923702
1.289905436
1.289861388
1.301489314
1.277749299
1.289802687
1.289862954
1.289836038
1.289784059
1.289724009
1.28967986
1.289646398
1.289633644
1.289633351
1.289643252
1.289662934
1.289694511
1.289738174
1.289786672
1.289821925
1.289832239
1.289823387
1.289803737
1.300337068
1.279081483
1.28985898
1.289939395
1.289934089
1.289891352
1.289826809
1.289767211
1.289710868
1.289673629
1.2896511
1.289644078
1.289650497
1.28967038
1.289699854
1.289732327
1.289754163
1.289759592
1.289757106
1.289757021
1.298991899
1.280700987
1.28990178
1.289994286
1.290006383
1.289973425
1.289906946
1.289837213
1.289764276
1.289710347
1.289672436
1.289653236
1.289649515
1.289659366
1.289676869
1.28969682
1.289708515
1.289709737
1.289711051
1.289724183
1.29755567
1.282181903
1.289923027
1.290018889
1.290043291
1.290019317
1.289956156
1.289882027
1.289802219
1.289740319
1.289694383
1.289668225
1.289657694
1.289660108
1.289668788
1.289679862
1.28968433
1.289683012
1.28968582
1.289706383
1.296130268
1.283955896
1.289922178
1.29001046
1.290039971
1.290024292
1.289968989
1.289898959
1.28982238
1.289760985
1.289714612
1.28968653
1.28967309
1.289670551
1.289674125
1.289679436
1.289680623
1.289677725
1.289681021
1.289702519
1.294621551
1.285479569
1.289896861
1.289966958
1.289994418
1.289984805
1.289942351
1.289885259
1.289822769
1.289771122
1.289731993
1.289707357
1.289694466
1.289690209
1.289691086
1.289693823
1.289693447
1.289690916
1.289692879
1.289711058
1.293266835
1.287302738
1.289844102
1.289872073
1.289876163
1.289855842
1.289827141
1.289792699
1.28976851
1.289749192
1.289736124
1.289727027
1.289721266
1.289723134
1.289726394
1.289728136
1.289728942
1.289722002
1.289723796
1.289729181
1.291767721
1.28704077
1.284659172
1.281565455
1.279111709
1.277289357
1.27675176
1.276915917
1.278835685
1.281034679
1.283926013
1.287271288
1.289872048
1.293685181
1.294836424
1.298459718
1.296813071
1.299268444
1.294363311
1.295844033
1.28993007
1.26897678
1.289543945
1.289603839
1.289518032
1.289464938
1.289430813
1.28943213
1.289470195
1.28955305
1.28967922
1.289849899
1.290046842
1.290251499
1.290432124
1.2905489
1.290578103
1.290495894
1.290330014
1.290136495
1.306632879
1.268791844
1.289543758
1.289600366
1.289510539
1.289455249
1.289420429
1.289425296
1.289469099
1.28955776
1.289686407
1.289855576
1.290049018
1.290249127
1.290426868
1.290544806
1.290577008
1.290498883
1.290337483
1.290150174
1.307008596
1.268377419
1.289532024
1.289584045
1.28948764
1.289427831
1.289392853
1.289404644
1.28945936