/*--------------------------------*- C++ -*----------------------------------*\
| =========                 |                                                 |
| \\      /  F ield         | OpenFOAM: The Open Source CFD Toolbox           |
|  \\    /   O peration     | Version:  5.x                                   |
|   \\  /    A nd           | Web:      www.OpenFOAM.org                      |
|    \\/     M anipulation  |                                                 |
\*---------------------------------------------------------------------------*/
FoamFile
{
    version     2.0;
    format      ascii;
    class       volScalarField;
    location    "2";
    object      p;
}
// * * * * * * * * * * * * * * * * * * * * * * * * * * * * * * * * * * * * * //

dimensions      [1 -1 -2 0 0 0 0];

internalField   nonuniform List<scalar> 
30538
(
101303.2054
101308.0027
101310.9115
101312.1266
101313.4728
101315.5448
101319.8145
101324.8124
101328.9903
101330.0324
101327.7145
101322.1459
101315.0339
101308.1235
101302.3236
101297.7676
101294.8145
101293.9056
101295.2027
101297.9135
101302.8194
101306.89
101309.2931
101310.119
101311.24
101313.0937
101317.1551
101321.997
101326.2189
101327.6099
101325.9512
101321.285
101315.1674
101309.1294
101304.0231
101299.8065
101296.8557
101295.6093
101296.3197
101298.3263
101302.0981
101304.8053
101306.2539
101306.3372
101307.0134
101308.4454
101312.1178
101316.6756
101320.979
101323.0178
101322.6115
101319.6333
101315.3628
101310.9628
101307.0691
101303.4678
101300.5136
101298.6514
101298.319
101299.0638
101301.1359
101302.0083
101302.1561
101301.2143
101301.2459
101302.0905
101305.2399
101309.4103
101313.8045
101316.7076
101318.006
101317.298
101315.4873
101313.2332
101310.8987
101308.0523
101305.0531
101302.4062
101300.7912
101299.9765
101300.0462
101298.8327
101297.4732
101295.3398
101294.5804
101294.7332
101297.2984
101300.9912
101305.4971
101309.3478
101312.5981
101314.437
101315.4047
101315.504
101314.8164
101312.7274
101309.6129
101306.1385
101303.2419
101300.885
101298.9569
101295.6391
101292.7402
101289.4017
101287.7764
101287.2111
101289.1936
101292.3419
101296.9576
101301.7029
101306.9139
101311.2608
101315.0018
101317.3211
101318.1182
101316.6462
101313.3645
101309.1386
101305.1807
101301.6082
101297.9881
101292.7719
101288.4878
101284.0705
101281.6085
101280.3653
101281.8827
101284.4037
101289.1879
101294.6509
101301.5533
101308.0568
101314.1662
101318.2535
101320.188
101319.1124
101315.6239
101310.8262
101306.2181
101301.9899
101297.2386
101290.5244
101285.1617
101279.9307
101276.7665
101274.9929
101276.0594
101278.2332
101283.0017
101288.9842
101297.1167
101305.1902
101312.7232
101318.0299
101320.6209
101319.6626
101315.9401
101310.8615
101306.1111
101301.9446
101296.7966
101289.1425
101283.1089
101277.3864
101273.7839
101271.592
101272.3341
101274.3973
101279.071
101285.3504
101294.0212
101302.8075
101310.901
101316.6311
101319.2858
101318.1363
101314.1756
101309.1294
101304.8328
101301.4668
101296.7227
101288.8132
101282.5786
101276.7272
101272.9353
101270.5382
101271.0522
101273.0765
101277.6841
101283.9951
101292.5572
101301.229
101308.9348
101314.2523
101316.3459
101314.6987
101310.5329
101305.793
101302.5589
101300.6036
101297.0056
101289.5243
101283.575
101277.9617
101274.1988
101271.8269
101272.3541
101274.5488
101278.9468
101284.9306
101292.8223
101300.6152
101307.1257
101311.2367
101312.1797
101309.8062
101305.5348
101301.3157
101299.5125
101299.4813
101297.5856
101291.0532
101285.8437
101280.7419
101277.3461
101275.2085
101275.9107
101278.1968
101282.3987
101287.8614
101294.6803
101301.0142
101305.7335
101308.0172
101307.4071
101304.1725
101299.8104
101296.435
101296.1949
101298.2747
101298.2928
101293.1249
101288.902
101284.5407
101281.5634
101279.8353
101280.7606
101283.305
101287.3646
101292.2188
101297.7562
101302.2775
101304.8614
101304.9902
101302.7125
101298.6383
101294.1913
101291.7546
101293.0725
101297.1674
101299.0264
101295.3367
101292.1274
101288.581
101286.112
101284.8795
101286.1557
101289.0274
101292.9739
101297.2196
101301.4078
101304.0305
101304.469
101302.4952
101298.7292
101293.8794
101289.4256
101287.8781
101290.5817
101296.2895
101299.7004
101297.4066
101295.1833
101292.4266
101290.4793
101289.72
101291.3383
101294.4661
101298.2796
101301.9202
101304.8513
101305.7667
101304.391
101300.7302
101295.8456
101290.3831
101286.1126
101285.2807
101289.0123
101295.7551
101300.2433
101299.1559
101297.7936
101295.7318
101294.2617
101293.8689
101295.6829
101298.8785
101302.4559
101305.4966
101307.3762
101307.0158
101304.3857
101299.7265
101294.2147
101288.5823
101284.7905
101284.5188
101288.6881
101295.6729
101300.571
101300.3508
101299.6483
101298.1979
101297.1791
101297.0497
101298.8287
101301.7776
101304.9319
101307.3668
101308.4781
101307.3799
101304.2125
101299.308
101293.9014
101288.7012
101285.5059
101285.5635
101289.5791
101296.025
101300.646
101300.8915
101300.6044
101299.6657
101299.0051
101299.0229
101300.5139
101302.9018
101305.4082
101307.2174
101307.8312
101306.5483
101303.5585
101299.2637
101294.6859
101290.4691
101288.0405
101288.2488
101291.5933
101296.7939
101300.489
101300.8095
101300.7311
101300.195
101299.8333
101299.8923
101300.9144
101302.5005
101304.1272
101305.1962
101305.409
101304.5277
101302.4137
101299.508
101296.4321
101293.7327
101292.1977
101292.411
101294.5896
101297.9388
101300.1866
101300.3822
101300.3963
101300.2578
101300.1408
101300.1951
101300.5547
101301.1212
101301.6641
101301.9799
101302.0148
101301.6802
101300.9094
101299.8458
101298.7866
101297.8164
101297.3321
101297.3673
101298.1484
101299.2728
101304.0873
101310.1801
101314.1993
101315.8142
101316.7729
101317.7268
101320.1472
101322.6261
101324.1792
101322.9007
101319.0329
101312.9973
101306.4134
101300.6922
101296.5047
101293.7298
101292.443
101292.8321
101294.9008
101297.9516
101303.7145
101309.0758
101312.5871
101313.7954
101314.5003
101315.2077
101317.4112
101319.7722
101321.4171
101320.538
101317.3605
101312.2233
101306.607
101301.7068
101298.1287
101295.6523
101294.3427
101294.4048
101295.9281
101298.3294
101303.0158
101306.9946
101309.5388
101309.9695
101310.1829
101310.4255
101312.2448
101314.4031
101316.2476
101316.1192
101314.2422
101310.7775
101306.945
101303.5862
101301.1094
101299.1574
101297.7955
101297.2491
101297.7865
101299.0169
101302.0731
101304.1948
101305.4077
101304.7731
101304.2921
101303.9181
101305.2442
101307.1428
101309.2601
101310.1251
101310.0085
101308.7872
101307.3363
101306.0022
101304.9383
101303.6232
101302.1584
101300.8217
101300.1175
101299.8854
101300.9919
101300.9976
101300.6578
101298.7934
101297.489
101296.4232
101297.2232
101298.8564
101301.2911
101303.2635
101305.1504
101306.4377
101307.6399
101308.5263
101308.963
101308.2751
101306.6379
101304.451
101302.471
101300.7637
101299.895
101297.7524
101295.8202
101292.7173
101290.55
101288.796
101289.1231
101290.4736
101293.2127
101296.2716
101300.1595
101303.8964
101307.7708
101310.6954
101312.4724
101312.2872
101310.425
101307.4458
101304.3817
101301.4744
101298.9018
101294.8
101291.4139
101287.2098
101284.2501
101281.9044
101281.8576
101282.907
101286.0326
101289.9283
101295.6145
101301.4871
101307.4991
101312.0381
101314.8075
101314.9171
101312.8012
101309.2237
101305.4493
101301.8676
101298.111
101292.4347
101287.8924
101282.8576
101279.276
101276.4809
101276.1787
101277.1484
101280.4074
101285.0093
101292.0134
101299.363
101306.6742
101312.2529
101315.5254
101315.6534
101313.2711
101309.3917
101305.4326
101301.8545
101297.6088
101290.9029
101285.6166
101280.074
101276.1223
101273.0785
101272.6315
101273.6544
101277.038
101282.0858
101289.6327
101297.6678
101305.4156
101311.2657
101314.4646
101314.3183
101311.6769
101307.8279
101304.2619
101301.4264
101297.4522
101290.3868
101284.8275
101279.1496
101275.0967
101272.0236
101271.5299
101272.6484
101276.105
101281.2641
101288.7425
101296.6213
101303.8992
101309.2252
101311.7501
101311.0545
101308.2122
101304.6846
101302.0994
101300.6138
101297.6456
101290.8902
101285.5267
101280.0898
101276.1385
101273.2642
101272.9721
101274.2989
101277.6372
101282.5209
101289.3744
101296.3476
101302.398
101306.4495
101307.768
101306.3315
101303.3958
101300.3816
101299.1784
101299.5438
101298.1432
101292.2257
101287.5518
101282.6175
101279.1017
101276.5854
101276.5256
101277.9955
101281.1708
101285.5561
101291.3692
101296.8928
101301.1561
101303.3635
101303.1418
101300.8827
101297.8752
101295.6937
101295.9994
101298.3855
101298.7677
101294.1305
101290.3583
101286.2001
101283.1138
101281.0805
101281.3284
101283.0265
101286.0474
101289.8282
101294.3821
101298.1419
101300.3044
101300.3876
101298.5556
101295.5239
101292.4759
101291.1996
101293.0169
101297.3211
101299.421
101296.1725
101293.3752
101290.0429
101287.5139
101286.0155
101286.6272
101288.5861
101291.4575
101294.6198
101297.8599
101299.7891
101299.8814
101297.943
101294.6966
101290.9743
101287.9474
101287.5125
101290.6578
101296.4795
101300.0121
101298.0789
101296.224
101293.6916
101291.7215
101290.7272
101291.683
101293.8411
101296.5434
101299.0934
101301.1245
101301.457
101299.8478
101296.3212
101292.0338
101287.7244
101284.855
101285.0424
101289.1744
101295.981
101300.4691
101299.6535
101298.5984
101296.7624
101295.2968
101294.7142
101295.8911
101298.1142
101300.5781
101302.5628
101303.6334
101302.8239
101300.0683
101295.6308
101290.7606
101286.2735
101283.7592
101284.3822
101288.8858
101295.89
101300.7271
101300.6961
101300.2281
101298.9803
101297.9755
101297.7033
101298.9088
101300.963
101303.0946
101304.5745
101305.0098
101303.588
101300.3957
101295.7556
101290.9913
101286.7916
101284.6797
101285.4703
101289.7642
101296.2095
101300.7452
101301.1043
101300.9705
101300.1969
101299.556
101299.4799
101300.5144
101302.1784
101303.8523
101304.922
101305.0162
101303.4882
101300.524
101296.4957
101292.4736
101289.0387
101287.4404
101288.1908
101291.7413
101296.9299
101300.5394
101300.9105
101300.9159
101300.4886
101300.1487
101300.1639
101300.8948
101302.0034
101303.0754
101303.6905
101303.6006
101302.5319
101300.4398
101297.7361
101295.0414
101292.8431
101291.8225
101292.3744
101294.6752
101298.0206
101300.1998
101300.4028
101300.4439
101300.3492
101300.2476
101300.2895
101300.5471
101300.9339
101301.2817
101301.4466
101301.3733
101300.9725
101300.216
101299.233
101298.3236
101297.5212
101297.2177
101297.3519
101298.1803
101299.2967
101306.118
101315.1286
101321.6735
101325.1091
101326.6368
101326.2036
101325.7322
101323.244
101319.6535
101313.789
101306.5967
101298.8931
101292.2334
101287.6771
101285.6905
101285.6817
101287.2753
101290.086
101293.7111
101297.7753
101305.7335
101313.9749
101320.0361
101322.9954
101324.1818
101323.4716
101322.8592
101320.3491
101317.0146
101311.631
101305.1614
101298.3493
101292.6038
101288.8131
101287.3292
101287.5317
101289.0495
101291.5271
101294.6457
101298.1263
101305.0097
101311.8248
101316.9039
101318.9793
101319.5384
101318.3341
101317.4725
101314.9487
101312.1089
101307.6131
101302.5244
101297.3562
101293.3205
101290.9568
101290.3915
101290.9734
101292.3415
101294.19
101296.3608
101298.774
101304.0313
101308.9271
101312.6116
101313.4979
101313.2232
101311.4013
101310.2183
101307.7655
101305.5711
101302.2795
101299.0425
101296.0706
101294.3007
101293.8067
101294.4404
101295.4923
101296.6428
101297.6482
101298.572
101299.6097
101302.9051
101305.5857
101307.6285
101307.1705
101305.9488
101303.5055
101301.9395
101299.7449
101298.2795
101296.3259
101295.2207
101294.7038
101295.4101
101296.9313
101298.8633
101300.3706
101301.2335
101301.3058
101300.9007
101300.4775
101301.7512
101302.1448
101302.4921
101300.6908
101298.5294
101295.5511
101293.6493
101291.7957
101291.0485
101290.4676
101291.4518
101293.3071
101296.4884
101299.8353
101302.9098
101304.7613
101305.2946
101304.4961
101302.904
101301.1993
101300.682
101298.9621
101297.7312
101294.7455
101291.7878
101288.401
101286.3233
101284.774
101284.7195
101285.4032
101288.3025
101292.1641
101297.2442
101301.9898
101305.863
101307.863
101308.0678
101306.6071
101304.171
101301.631
101299.7955
101296.3446
101293.8237
101289.9318
101286.4115
101282.7899
101280.683
101279.4594
101279.9375
101281.7406
101285.9333
101291.2461
101297.495
101303.0306
101307.222
101309.126
101309.0256
101307.2065
101304.4234
101301.7205
101299.1722
101294.5365
101291.1437
101286.7
101282.9036
101279.239
101277.2234
101276.3375
101277.3054
101279.7744
101284.6773
101290.6289
101297.1973
101302.8183
101306.78
101308.3312
101307.962
101306.1174
101303.5956
101301.4077
101298.8689
101293.7131
101289.9259
101285.3415
101281.5349
101278.035
101276.1929
101275.6227
101276.8813
101279.6124
101284.5724
101290.3784
101296.4272
101301.3957
101304.5781
101305.5507
101305.0041
101303.4535
101301.7431
101300.7191
101298.929
101293.8798
101290.1531
101285.8173
101282.1998
101279.0648
101277.6442
101277.3247
101278.5818
101281.1397
101285.5897
101290.5541
101295.3779
101299.0219
101300.9767
101301.2145
101300.5591
101299.5909
101299.102
101299.7629
101299.2596
101294.8706
101291.7907
101287.9004
101284.8086
101282.1127
101280.9291
101280.8005
101281.93
101284.046
101287.5688
101291.1862
101294.2775
101296.1134
101296.575
101296.0272
101295.3427
101295.1678
101296.1351
101298.6951
101299.7461
101296.4713
101294.151
101291.0052
101288.3845
101286.2023
101285.3444
101285.3683
101286.3073
101287.8306
101290.2168
101292.2156
101293.3409
101293.1779
101292.0986
101290.811
101290.1416
101290.8269
101293.2809
101297.6813
101300.2622
101298.2098
101296.7532
101294.3989
101292.3239
101290.6633
101290.1028
101290.2697
101290.9871
101291.9075
101293.1285
101293.512
101292.7509
101290.7202
101288.2992
101286.4136
101285.7881
101287.1665
101290.9452
101296.8392
101300.708
101299.8111
101299.152
101297.543
101296.0059
101294.8136
101294.5348
101294.7907
101295.3094
101295.6931
101295.8962
101294.9028
101292.6442
101289.1977
101285.794
101283.3597
101282.7993
101284.7383
101289.4307
101296.3238
101301.0103
101301.0324
101300.9958
101299.9997
101298.9317
101298.1339
101298.0793
101298.4019
101298.7542
101298.7407
101298.1865
101296.2901
101293.1057
101288.8363
101284.9554
101282.3397
101281.9097
101284.0782
101289.1154
101296.1905
101301.1199
101301.7304
101302.071
101301.5343
101300.8628
101300.3751
101300.4559
101300.7731
101301.0051
101300.752
101299.831
101297.6079
101294.1251
101289.7598
101285.9539
101283.4241
101283.0816
101285.1654
101289.9415
101296.4623
101301.0048
101301.8011
101302.2535
101302.0232
101301.6324
101301.3725
101301.5029
101301.7773
101301.9424
101301.6234
101300.6846
101298.6143
101295.5044
101291.7769
101288.5858
101286.4605
101286.2246
101287.9481
101291.8815
101297.1246
101300.6781
101301.2876
101301.642
101301.558
101301.3927
101301.2874
101301.4359
101301.6353
101301.7413
101301.4693
101300.7599
101299.3164
101297.1802
101294.7181
101292.5999
101291.2169
101291.0695
101292.2195
101294.7749
101298.1449
101300.2316
101300.5208
101300.6614
101300.7
101300.6599
101300.6734
101300.7052
101300.7697
101300.7796
101300.6526
101300.3737
101299.8294
101299.0668
101298.1973
101297.4992
101296.9895
101296.9647
101297.3141
101298.216
101299.3428
101309.2417
101321.7057
101333.2994
101340.5501
101343.5844
101342.945
101338.4288
101329.9193
101319.797
101307.2827
101295.0793
101283.8523
101275.4339
101270.6391
101270.1604
101272.9133
101278.0049
101284.1922
101290.5311
101297.3116
101308.8194
101320.5539
101331.4683
101338.1557
101340.8221
101339.9415
101335.3875
101327.0851
101317.3912
101305.4667
101294.0578
101283.7403
101276.2208
101272.1737
101272.1256
101275.0029
101279.9325
101285.7325
101291.5016
101297.6568
101308.0084
101318.352
101328.003
101333.6422
101335.6182
101334.3231
101329.7383
101321.8378
101312.9598
101302.1142
101292.2343
101283.5694
101277.7163
101275.0459
101275.7883
101278.9009
101283.5244
101288.5962
101293.3052
101298.2981
101306.9016
101315.2975
101323.2782
101327.5343
101328.5355
101326.7506
101322.1599
101314.8938
101307.057
101297.7299
101289.8518
101283.4299
101279.7514
101278.8809
101280.6621
101284.0895
101288.2984
101292.3877
101295.6916
101299.1375
101305.6239
101311.6997
101317.7749
101320.4614
101320.435
101318.1318
101313.632
101307.1833
101300.5462
101293.0222
101287.4216
101283.4138
101282.1523
101283.1702
101286.0672
101289.8071
101293.5353
101296.5471
101298.2843
101300.0323
101304.3104
101307.9485
101312.0648
101313.1945
101312.1885
101309.4332
101305.1007
101299.583
101294.1104
101288.6332
101285.1459
101283.587
101284.5582
101287.2979
101291.1929
101295.1595
101298.4016
101300.405
101300.651
101300.8184
101303.0741
101304.4289
101306.7261
101306.4778
101304.6592
101301.5858
101297.5334
101292.8965
101288.6838
101284.9459
101283.4961
101283.8949
101286.6754
101290.6795
101295.2516
101299.2792
101302.0867
101303.2717
101302.3975
101301.3583
101302.0243
101301.4637
101302.2847
101300.9617
101298.59
101295.3642
101291.6637
101287.8232
101284.6581
101282.392
101282.4499
101284.2967
101288.16
101292.846
101297.6392
101301.524
101303.9689
101304.6463
101303.2107
101301.5918
101301.2366
101299.2947
101299.1034
101297.087
101294.4752
101291.2909
101287.9831
101284.8266
101282.549
101281.2821
101282.2088
101284.7602
101288.9275
101293.5855
101298.0879
101301.6141
101303.7887
101304.3351
101302.9343
101301.4516
101300.768
101298.1016
101297.4185
101295.1492
101292.5771
101289.6287
101286.6983
101284.0427
101282.334
101281.5719
101282.7307
101285.229
101288.9029
101292.841
101296.561
101299.5302
101301.5736
101302.3293
101301.5713
101300.9216
101300.6526
101297.8996
101297.1891
101295.0739
101292.76
101290.197
101287.6834
101285.422
101283.8832
101283.1106
101283.9307
101285.7036
101288.2341
101290.8439
101293.3834
101295.6592
101297.6568
101298.9799
101299.3116
101300.0873
101300.8041
101298.5191
101298.313
101296.5995
101294.7916
101292.6557
101290.3922
101288.2746
101286.681
101285.5875
101285.652
101286.2302
101287.1634
101288.0544
101289.1932
101290.7115
101292.7286
101294.8162
101296.5388
101299.0489
101301.1333
101299.7693
101300.125
101299.0638
101297.7293
101296.0177
101294.0072
101291.9518
101290.1638
101288.5556
101287.6697
101286.8395
101286.009
101285.0592
101284.7437
101285.5103
101287.5756
101290.4395
101293.6469
101298.0311
101301.4853
101301.1464
101302.1492
101301.7683
101300.9201
101299.6085
101297.7985
101295.7615
101293.7292
101291.5948
101289.7491
101287.5854
101285.1248
101282.5276
101280.9124
101280.9576
101283.0889
101286.6041
101291.1531
101297.135
101301.7533
101302.3625
101303.9001
101304.1123
101303.7126
101302.7253
101301.0939
101299.0831
101296.8747
101294.3447
101291.7547
101288.5278
101284.8249
101280.9365
101278.3617
101277.9866
101280.0403
101284.026
101289.4399
101296.5307
101301.8459
101303.1358
101304.9703
101305.6086
101305.5415
101304.8248
101303.4017
101301.5175
101299.2916
101296.6193
101293.6412
101289.8521
101285.4912
101281.0054
101277.9968
101277.3288
101279.2198
101283.1998
101288.9481
101296.3183
101301.7413
101303.3538
101305.2001
101306.036
101306.1691
101305.6655
101304.4925
101302.8228
101300.7834
101298.2647
101295.3201
101291.5792
101287.2092
101282.7904
101279.8176
101279.0396
101280.645
101284.2576
101289.6894
101296.5544
101301.4233
101302.9363
101304.4905
101305.2977
101305.4949
101305.1722
101304.3033
101302.9986
101301.3525
101299.2947
101296.8121
101293.6749
101289.9712
101286.2809
101283.8162
101283.0787
101284.3278
101287.1898
101291.6676
101297.1985
101300.9103
101301.9318
101302.9496
101303.5065
101303.7165
101303.5499
101303.0546
101302.2274
101301.1689
101299.8149
101298.1531
101296.0708
101293.6101
101291.2115
101289.5729
101289.0774
101289.848
101291.7166
101294.6352
101298.2071
101300.3007
101300.7208
101301.0962
101301.3531
101301.4482
101301.4199
101301.2289
101300.9287
101300.5258
101300.029
101299.4305
101298.6667
101297.8228
101296.989
101296.4794
101296.256
101296.5649
101297.1346
101298.187
101299.3658
101312.8451
101329.3496
101347.2546
101360.0969
101365.3906
101365.114
101357.0474
101342.3748
101325.0428
101304.8097
101286.0945
101269.4816
101257.3646
101250.3649
101249.9896
101254.9902
101263.8783
101274.4488
101284.519
101295.8245
101312.3696
101328.0323
101345.1658
101357.3039
101362.2412
101361.8053
101353.922
101339.7003
101322.9681
101303.4918
101285.672
101269.958
101258.7407
101252.4908
101252.5497
101257.6398
101266.2586
101276.3244
101285.6819
101296.1854
101311.4467
101325.5281
101341.2135
101352.0406
101356.3531
101355.643
101348.0755
101334.7009
101319.1329
101301.0565
101284.9858
101270.8688
101261.3364
101256.4774
101257.3306
101262.5537
101270.6783
101279.811
101287.8425
101296.8556
101310.1769
101322.0807
101335.8451
101344.8701
101348.3896
101347.3611
101340.2819
101328.1255
101314.0802
101297.9806
101284.0167
101272.2092
101264.795
101261.8198
101263.6638
101269.076
101276.534
101284.4488
101290.7487
101297.7352
101308.674
101318.0701
101329.5938
101336.6146
101339.2445
101337.8898
101331.4117
101320.7005
101308.5069
101294.6646
101283.2318
101273.87
101268.7829
101267.739
101270.715
101276.3145
101283.0453
101289.5849
101294.0008
101298.7176
101307.1173
101313.8711
101323.1036
101328.1536
101329.8893
101328.2757
101322.4881
101313.3592
101302.9557
101291.6148
101282.4078
101275.6667
101272.7553
101273.5091
101277.4806
101283.2405
101289.2839
101294.4793
101297.1087
101299.679
101305.6442
101309.9055
101317.0442
101320.4035
101321.2572
101319.5146
101314.4648
101306.8037
101298.3027
101289.1249
101282.1722
101277.4355
101276.4099
101278.4792
101283.1606
101288.9448
101294.4098
101298.4684
101299.611
101300.4813
101304.3975
101306.5534
101311.9831
101314.0271
101314.2184
101312.4636
101308.0835
101301.6824
101294.6795
101287.3769
101282.0514
101278.9846
101279.1352
101282.0306
101286.9925
101292.6606
101297.685
101300.9707
101301.1726
101300.9851
101303.4449
101304.0912
101308.3192
101309.48
101309.3599
101307.6763
101303.9009
101298.4955
101292.705
101286.7283
101282.5469
101280.2981
101280.9205
101283.904
101288.6633
101294.012
101298.745
101301.7021
101301.6139
101301.108
101302.8275
101302.6587
101306.2468
101307.0371
101306.8804
101305.3899
101302.0282
101297.337
101292.2736
101287.089
101283.3335
101281.2708
101281.5843
101283.9652
101288.0688
101292.9351
101297.5184
101300.5716
101300.8768
101300.8218
101302.5786
101302.2867
101305.7262
101306.6084
101306.6764
101305.4007
101302.4265
101298.0373
101293.267
101288.3116
101284.5006
101281.9923
101281.3356
101282.4807
101285.5239
101289.7719
101294.2984
101297.8091
101299.0853
101300.1461
101302.6118
101302.7342
101306.4548
101307.6738
101308.1169
101307.1323
101304.2661
101300.0226
101295.2042
101290.1486
101285.854
101282.4313
101280.4181
101280.0061
101281.7198
101285.1225
101289.6794
101293.8429
101296.5028
101299.1738
101302.7927
101303.7468
101307.883
101309.6545
101310.4601
101309.6985
101306.8905
101302.6052
101297.6324
101292.2719
101287.2845
101282.7812
101279.2615
101277.1101
101277.3627
101279.9615
101284.506
101289.4205
101293.581
101298.1148
101302.9797
101304.8286
101309.3807
101311.7033
101312.831
101312.2732
101309.4557
101305.1241
101299.9772
101294.3356
101288.7079
101283.1805
101278.2772
101274.6069
101273.5567
101275.4492
101279.9243
101285.4019
101290.9159
101297.1439
101303.0427
101305.6865
101310.452
101313.1763
101314.5516
101314.1186
101311.3832
101307.0667
101301.8911
101296.1296
101290.1076
101283.9299
101278.0616
101273.3474
101271.3398
101272.5813
101276.7735
101282.545
101288.9529
101296.4672
101302.9141
101305.9987
101310.6362
101313.5201
101314.9887
101314.6432
101312.0784
101308.0007
101303.0539
101297.5169
101291.5326
101285.2151
101279.0459
101273.9416
101271.4516
101272.1708
101275.9345
101281.53
101288.2425
101296.2033
101302.5629
101305.665
101309.8013
101312.5372
101313.903
101313.6054
101311.3657
101307.8044
101303.4339
101298.4977
101293.0723
101287.2466
101281.4812
101276.6174
101274.1047
101274.4682
101277.6169
101282.6043
101288.9118
101296.4272
101302.0045
101304.6332
101307.8831
101310.1251
101311.228
101310.9888
101309.2463
101306.4807
101303.0393
101299.1391
101294.7817
101290.076
101285.4248
101281.438
101279.3267
101279.4805
101281.8514
101285.7622
101290.9414
101297.0845
101301.2497
101302.9585
101305.0065
101306.4098
101307.2008
101307.0154
101305.9904
101304.2289
101302.0394
101299.5213
101296.7286
101293.6817
101290.675
101288.0878
101286.687
101286.7557
101288.2148
101290.725
101294.1189
101298.1291
101300.4064
101301.0916
101301.7727
101302.3496
101302.6067
101302.5643
101302.1844
101301.5827
101300.7794
101299.8693
101298.8663
101297.792
101296.7762
101295.9033
101295.4785
101295.4646
101295.9836
101296.7758
101297.9859
101299.3429
101316.5979
101335.9416
101360.8516
101379.4999
101387.4153
101388.0061
101377.5421
101357.7198
101333.3824
101305.5185
101279.5929
101256.5284
101239.537
101229.5368
101228.3588
101234.8888
101246.9057
101261.9042
101276.6763
101293.3127
101316.0372
101334.4099
101358.4185
101376.2431
101383.8673
101384.422
101374.3131
101355.1426
101331.6019
101304.663
101279.6902
101257.6082
101241.5114
101232.2185
101231.5369
101238.164
101249.8593
101264.1839
101278.0922
101293.7291
101314.9407
101331.5127
101353.8064
101370.1552
101377.2712
101377.7655
101368.3972
101350.4424
101328.4632
101303.1761
101280.1301
101259.7214
101245.3408
101237.4034
101237.5223
101244.25
101255.2853
101268.3992
101280.6975
101294.5207
101313.4366
101327.5562
101347.5661
101361.8943
101368.35
101368.7608
101360.2685
101344.1368
101324.095
101301.2147
101280.4953
101262.4424
101250.1529
101244.0542
101245.2686
101252.3227
101262.5392
101274.047
101284.2147
101295.6178
101311.6424
101322.9995
101340.3634
101352.402
101358.1043
101358.4144
101351.0419
101336.9564
101319.3954
101299.1495
101281.3145
101265.7669
101255.943
101251.8401
101254.2258
101261.3681
101270.6391
101280.4005
101288.18
101296.8993
101309.78
101318.3008
101332.9968
101342.6692
101347.6168
101347.8626
101341.5939
101329.6753
101314.5477
101297.2325
101282.0982
101269.2853
101261.5504
101259.4523
101262.9266
101270.134
101278.4971
101286.6051
101292.1019
101298.1736
101308.01
101313.9422
101326.1573
101333.711
101337.9504
101338.1967
101333.0459
101323.1043
101310.3624
101295.5093
101282.9586
101272.4658
101266.7864
101266.1877
101270.4777
101277.6042
101285.1563
101291.8917
101295.4642
101299.2811
101306.5269
101310.3278
101320.5204
101326.3933
101330.0629
101330.3297
101326.0686
101317.7895
101306.9346
101294.3551
101283.6629
101275.4479
101270.8491
101271.3383
101275.9448
101282.9421
101289.8813
101295.6249
101297.8912
101300.0595
101305.4144
101307.7791
101316.515
101321.2275
101324.5177
101324.8399
101321.2878
101314.21
101304.823
101293.8324
101284.48
101277.3924
101273.6356
101274.448
101278.977
101285.6993
101292.2183
101297.4558
101299.0923
101300.4312
101304.7006
101306.3545
101314.3094
101318.3927
101321.5052
101321.8756
101318.7436
101312.4537
101303.9999
101294.1993
101285.4519
101278.8102
101275.026
101275.5156
101279.4879
101285.7928
101292.1517
101297.2915
101299.0624
101300.3382
101304.4029
101306.0748
101313.7452
101317.778
101320.8867
101321.3006
101318.3398
101312.399
101304.3853
101295.1192
101286.5076
101279.5327
101275.3078
101274.7605
101277.7974
101283.4559
101289.7477
101295.2601
101297.7487
101299.7835
101304.4169
101306.6304
101314.4411
101318.7466
101322.0156
101322.4757
101319.5254
101313.6501
101305.6855
101296.5557
101287.8102
101280.1734
101274.8827
101272.882
101274.5401
101279.4438
101285.7167
101291.7569
101295.5011
101298.8696
101304.5635
101307.6248
101315.7677
101320.5964
101323.9779
101324.41
101321.3889
101315.468
101307.4612
101298.2439
101289.1024
101280.6497
101274.1524
101270.4949
101270.7248
101274.7428
101280.8593
101287.5465
101292.6836
101297.809
101304.6612
101308.6724
101317.008
101322.3147
101325.7826
101326.2291
101323.081
101317.0299
101309.0509
101299.8164
101290.3846
101281.2498
101273.682
101268.6054
101267.534
101270.5513
101276.4531
101283.5116
101290.023
101296.8169
101304.5755
101309.3434
101317.5991
101323.1668
101326.5698
101326.9466
101323.7516
101317.8041
101310.0274
101301.0354
101291.5965
101282.1403
101273.915
101267.8847
101265.8044
101267.9841
101273.3917
101280.5881
101287.9932
101296.1443
101304.2399
101309.3053
101317.0237
101322.488
101325.6326
101325.9335
101322.8738
101317.2764
101310.0545
101301.7034
101292.7763
101283.5953
101275.3965
101269.1695
101266.554
101267.9582
101272.7154
101279.5517
101287.2443
101295.9089
101303.6256
101308.4484
101315.1495
101320.0561
101322.7688
101322.9504
101320.2527
101315.3911
101309.0998
101301.8449
101293.9975
101285.8373
101278.4474
101272.7
101270.0123
101270.8028
101274.7188
101280.7383
101287.9232
101296.1818
101302.7948
101306.7563
101311.903
101315.8194
101317.8784
101317.9966
101315.8859
101312.1313
101307.2192
101301.5759
101295.3916
101288.9536
101283.1213
101278.4866
101276.1535
101276.5298
101279.4469
101284.1628
101290.0526
101296.8777
101301.7408
101304.2904
101307.4848
101309.9191
101311.235
101311.268
101309.9963
101307.6166
101304.5171
101300.9272
101297.0193
101292.9393
101289.1992
101286.196
101284.6331
101284.8042
101286.5824
101289.6212
101293.4735
101297.9786
101300.5878
101301.5856
101302.6843
101303.6153
101304.0112
101304.028
101303.5452
101302.754
101301.6563
101300.3492
101298.9595
101297.507
101296.2468
101295.2228
101294.7673
101294.772
101295.4396
101296.3651
101297.7693
101299.2819
101319.714
101340.8329
101372.0937
101394.9794
101405.4048
101406.8852
101395.0781
101371.7907
101342.2248
101308.2779
101276.1629
101246.8755
101225.0916
101212.2541
101209.9758
101216.7862
101230.5729
101249.0041
101268.1311
101290.5724
101319.0656
101339.0969
101369.317
101391.3271
101401.5934
101403.1598
101391.8435
101369.4072
101340.9184
101307.9864
101276.853
101248.6825
101227.8385
101215.6893
101213.8648
101220.7034
101234.0363
101251.6966
101269.7528
101291.0948
101317.7938
101335.851
101364.0272
101384.4932
101394.3674
101396.0459
101385.5339
101364.7814
101338.273
101307.1882
101278.2278
101251.5238