/*--------------------------------*- C++ -*----------------------------------*\
| =========                 |                                                 |
| \\      /  F ield         | OpenFOAM: The Open Source CFD Toolbox           |
|  \\    /   O peration     | Version:  5.x                                   |
|   \\  /    A nd           | Web:      www.OpenFOAM.org                      |
|    \\/     M anipulation  |                                                 |
\*---------------------------------------------------------------------------*/
FoamFile
{
    version     2.0;
    format      ascii;
    class       volScalarField;
    location    "2";
    object      rho;
}
// * * * * * * * * * * * * * * * * * * * * * * * * * * * * * * * * * * * * * //

dimensions      [1 -3 0 0 0 0 0];

internalField   nonuniform List<scalar> 
30538
(
1.283532159
1.289800231
1.289853792
1.289864654
1.289876901
1.289895741
1.289934522
1.289979809
1.290017637
1.290026786
1.290005924
1.289955425
1.28989115
1.289828521
1.289775924
1.289734504
1.289707666
1.289699486
1.289723506
1.291865446
1.283566712
1.289797234
1.289845913
1.289853257
1.289863463
1.289880292
1.289917169
1.289961054
1.28999927
1.290011644
1.289996784
1.289954372
1.289899094
1.289844398
1.289798085
1.289759755
1.289732952
1.289721724
1.289740657
1.291865568
1.283631911
1.289778936
1.289818359
1.289818953
1.289825105
1.289838114
1.289871481
1.289912799
1.289951622
1.289970141
1.289966556
1.289939457
1.289900794
1.289861012
1.2898257
1.289792943
1.289766125
1.289749307
1.289758303
1.291859198
1.283727106
1.28975432
1.289781157
1.28977244
1.289772746
1.289780474
1.289809108
1.289846806
1.289886581
1.28991302
1.289924897
1.289918361
1.289901909
1.289881511
1.289860426
1.289834529
1.289807252
1.289783319
1.28978009
1.291850399
1.283868096
1.289726496
1.289738673
1.289719143
1.28971235
1.289713792
1.289737086
1.2897703
1.289811295
1.289846382
1.289875989
1.289892529
1.289901187
1.289901999
1.289895921
1.289876937
1.289848651
1.289817144
1.28980159
1.291839697
1.284030676
1.289698671
1.289695808
1.289665365
1.289650693
1.289645593
1.289663429
1.289691997
1.289733894
1.289777032
1.289824544
1.289863785
1.289897509
1.289918547
1.289925781
1.289912477
1.289882686
1.289844372
1.289818452
1.29182654
1.284244445
1.289674038
1.289657265
1.289617031
1.289594772
1.289583524
1.289597105
1.289620061
1.289663453
1.289713072
1.289775993
1.289834685
1.289889938
1.28992701
1.289944586
1.289934817
1.289903188
1.28985968
1.289827054
1.29180418
1.284468869
1.289655086
1.289627105
1.289579486
1.289550862
1.289534797
1.289544319
1.289564106
1.289607364
1.289661682
1.289735777
1.289808662
1.28987686
1.289924986
1.289948534
1.289939777
1.289906069
1.289860005
1.289825353
1.29177596
1.284755899
1.289644317
1.289608485
1.289556414
1.289523807
1.289503922
1.289510553
1.28952932
1.289571729
1.289628719
1.289707683
1.289787045
1.289860342
1.289912304
1.289936436
1.289925936
1.289890068
1.289844301
1.289813049
1.291731968
1.285034829
1.289643163
1.289603672
1.289550449
1.289516107
1.289494347
1.289498952
1.289517349
1.289559161
1.289616421
1.289694374
1.289772725
1.289842525
1.289890743
1.289909775
1.289894771
1.289857039
1.289814049
1.289791776
1.291679571
1.28538777
1.289651793
1.289612695
1.289561657
1.289527568
1.289506036
1.289510787
1.289530714
1.289570616
1.289624897
1.289696751
1.289767156
1.289826132
1.289863408
1.289871998
1.289850419
1.289811725
1.289773452
1.289763437
1.291594467
1.285721902
1.289667804
1.289633262
1.289586885
1.289556116
1.28953671
1.289543063
1.289563811
1.289601926
1.289651475
1.28971357
1.28977078
1.289813525
1.289834229
1.289828724
1.289799348
1.289759828
1.289729199
1.289732616
1.291503165
1.286140345
1.289688919
1.289660997
1.289621352
1.289594371
1.289578677
1.28958707
1.289610146
1.289646964
1.289690993
1.289741434
1.289782241
1.289805631
1.289806793
1.289786159
1.289749179
1.289708885
1.289686767
1.289703494
1.29136428
1.286527199
1.289711095
1.289690247
1.289658009
1.289635633
1.289624428
1.289636016
1.289662049
1.289697839
1.289736356
1.289774514
1.28979814
1.289802083
1.289784184
1.289750046
1.289706041
1.289665671
1.28965162
1.289680115
1.291231648
1.287001463
1.289731973
1.289717949
1.289692891
1.289675244
1.289668333
1.289683032
1.289711379
1.289745956
1.289778998
1.289805705
1.289813889
1.289801383
1.289768187
1.289723902
1.28967435
1.289635623
1.289628072
1.289665028
1.291033999
1.28743331
1.289749566
1.289741612
1.289722872
1.289709546
1.289705957
1.289722429
1.289751391
1.289783824
1.289811443
1.289828565
1.289825207
1.289801335
1.289759087
1.28970911
1.289658031
1.28962362
1.289621158
1.289661286
1.290860498
1.287951548
1.289762001
1.289758417
1.28974523
1.289735992
1.289734803
1.289750955
1.289777686
1.289806282
1.289828407
1.289838522
1.289828501
1.289799756
1.289755287
1.289706263
1.289659109
1.289630112
1.289630638
1.289668546
1.290603743
1.288421258
1.289768178
1.289767106
1.28975858
1.289752593
1.289752753
1.289766285
1.289787929
1.289810645
1.289827076
1.289832656
1.289820984
1.289793851
1.289754908
1.289713384
1.289675154
1.289653109
1.289655
1.289686158
1.290397653
1.288973474
1.289765845
1.289762941
1.289753665
1.289748478
1.28974639
1.289757283
1.28977262
1.28979152
1.289803058
1.289807822
1.289800158
1.289783604
1.289757742
1.289733465
1.289707331
1.289695522
1.289693918
1.289714196
1.29010627
1.289292607
1.287748971
1.287610472
1.286085277
1.286326795
1.285335359
1.286015519
1.285623861
1.286725947
1.286770115
1.288195085
1.288364146
1.289917789
1.289799986
1.291250322
1.290540495
1.291704728
1.290317703
1.291166702
1.289488585
1.282511772
1.28981757
1.289885502
1.289900095
1.289908799
1.289917469
1.2899394
1.289961831
1.289975937
1.289964308
1.289929302
1.289874546
1.28981486
1.289762987
1.289725074
1.289699849
1.289688136
1.289691674
1.289728359
1.292484202
1.28254453
1.289814629
1.289877591
1.289888529
1.289894911
1.289901324
1.289921327
1.289942701
1.289957611
1.289949616
1.289920854
1.289874235
1.289823327
1.289778912
1.28974651
1.289723999
1.289712103
1.289712695
1.289744323
1.292491407
1.282607353
1.289796306
1.289849955
1.289853844
1.28985577
1.289857971
1.289874487
1.289894026
1.289910742
1.289909558
1.289892588
1.289861133
1.289826401
1.289795967
1.289773548
1.289755804
1.289743426
1.289738487
1.289760714
1.292497059
1.282701025
1.289771625
1.289812491
1.289806716
1.289802354
1.289798958
1.289811001
1.289828199
1.289847383
1.289855211
1.289854205
1.289843087
1.289829948
1.289817877
1.289808263
1.289796311
1.289782997
1.289770874
1.289781195
1.292502774
1.282839702
1.289743592
1.289769423
1.28975249
1.28974067
1.289730996
1.289738261
1.289753069
1.289775127
1.289792998
1.28981016
1.289821791
1.289832706
1.289840771
1.28984476
1.289838507
1.289823632
1.289803778
1.289801702
1.292507488
1.28300968
1.289715339
1.289725564
1.28969739
1.289677753
1.289661835
1.289664799
1.289677054
1.289701883
1.289729604
1.289764898
1.289798756
1.289833893
1.289860444
1.289876584
1.289874901
1.289857981
1.289830934
1.289818057
1.292504617
1.283230854
1.289690064
1.289685621
1.28964745
1.289620631
1.289599347
1.289598911
1.289608443
1.289636779
1.289672093
1.289723679
1.289776917
1.28983144
1.289872625
1.289897768
1.289898753
1.289879535
1.289847054
1.289826769
1.292491137
1.283479898
1.289670313
1.289653691
1.289607981
1.289575523
1.289550171
1.289547418
1.289556218
1.289585775
1.289627483
1.289691022
1.289757662
1.289823968
1.289874562
1.289904264
1.289905429
1.289883809
1.289848574
1.289825545
1.29245719
1.283793963
1.289658477
1.289633058
1.289582742
1.289546932
1.289519314
1.289515249
1.289524529
1.289555224
1.289600957
1.289669437
1.289742288
1.289812554
1.289865596
1.28989464
1.289893313
1.289869345
1.289834387
1.289813879
1.292406233
1.284122898
1.289656016
1.289625903
1.289574363
1.289537617
1.289509737
1.289505257
1.289515405
1.289546765
1.289593504
1.28966136
1.289732798
1.289798811
1.289847086
1.289870019
1.289863711
1.289837924
1.289805878
1.289793215
1.292324342
1.284525384
1.289663158
1.289632237
1.289582886
1.289547062
1.28952099
1.289518338
1.289530376
1.289560655
1.289604907
1.289667086
1.289730315
1.289785196
1.289821913
1.289833899
1.289820874
1.289794247
1.289766863
1.289765614
1.292211234
1.284934667
1.289677878
1.289650592
1.289605802
1.289573929
1.289551108
1.289550558
1.2895639
1.289592699
1.289632438
1.289685165
1.289735262
1.289773925
1.289793925
1.289791942
1.289771457
1.289744186
1.289724358
1.289735525
1.292067
1.28542294
1.289697903
1.28967604
1.289638289
1.289610305
1.289591867
1.289594111
1.289609527
1.289636918
1.289671184
1.289712483
1.289746592
1.289766193
1.289766935
1.289750343
1.289722852
1.289695224
1.28968361
1.289707179
1.291880217
1.285901421
1.289718962
1.289703396
1.289673137
1.289650205
1.289636619
1.289642165
1.28965994
1.289685979
1.289714642
1.289744021
1.289761527
1.289762355
1.289744767
1.289715343
1.289681591
1.289654159
1.289650177
1.289684432
1.291679779
1.286459939
1.28973869
1.289729221
1.289706222
1.289688355
1.289679344
1.289688012
1.289707591
1.289732101
1.289755213
1.289773629
1.289776656
1.289762052
1.289730067
1.289691199
1.289652114
1.289626104
1.289627783
1.289669655
1.291422669
1.28699185
1.289755082
1.28975075
1.289734076
1.289720781
1.2897155
1.289726173
1.289746341
1.28976868
1.289786676
1.289796381
1.289789047
1.289764057
1.289723812
1.289679657
1.289638964
1.289616162
1.289621796
1.289665782
1.29117498
1.287602857
1.289766463
1.289765523
1.28975419
1.289745082
1.289742623
1.289753555
1.289772182
1.289791505
1.289804924
1.289808866
1.289795976
1.289767021
1.289724944
1.289681749
1.289643663
1.289624518
1.289631674
1.28967261
1.290855037
1.288175951
1.289771683
1.289772259
1.289765228
1.289759413
1.28975872
1.289768106
1.289783204
1.289798384
1.289808085
1.289808941
1.289795085
1.28976819
1.289731661
1.289695174
1.28966403
1.28964953
1.289656341
1.28968961
1.290575473
1.288824273
1.28976828
1.289765145
1.289756688
1.289750397
1.289748504
1.289756276
1.289768474
1.289782628
1.289790856
1.28979327
1.289784141
1.289768579
1.289744729
1.289725602
1.289703109
1.289696754
1.289696469
1.289718059
1.290217411
1.289023343
1.287569578
1.287000451
1.285578464
1.28545776
1.284673909
1.285127409
1.285037388
1.286106252
1.286441773
1.288005956
1.288343161
1.290155401
1.290012669
1.291789995
1.290801016
1.292311181
1.290420643
1.291625625
1.289358925
1.281163754
1.289855453
1.289953197
1.289984274
1.289998186
1.28999429
1.289989949
1.289967352
1.289934824
1.289881673
1.289816475
1.289746649
1.289686196
1.289644852
1.289626886
1.289626794
1.289641233
1.289666706
1.289722067
1.293846497
1.281195306
1.289852197
1.289945101
1.289971931
1.289982693
1.289976247
1.289970707
1.289947934
1.289917699
1.289868865
1.289810214
1.28974848
1.289696337
1.289661968
1.289648506
1.289650343
1.289664157
1.289686575
1.289737571
1.293860631
1.281250471
1.289833347
1.289916706
1.289935525
1.289940596
1.289929666
1.289921871
1.289898973
1.289873223
1.289832432
1.289786313
1.289739482
1.28970285
1.289681421
1.289676286
1.289681566
1.289694021
1.289710728
1.289752624
1.293887218
1.281342743
1.289807978
1.289877785
1.289885824
1.289883329
1.289866798
1.289856093
1.289833838
1.289813943
1.28978407
1.289754746
1.289727826
1.289711742
1.289707269
1.289713006
1.289722546
1.289733027
1.289742086
1.289772018
1.293908662
1.281479161
1.289778808
1.289832607
1.289828451
1.28981737
1.289795209
1.289781027
1.289761109
1.28974783
1.28973009
1.289720092
1.289715429
1.289721806
1.289735605
1.28975312
1.289766794
1.289774653
1.28977526
1.289792327
1.293937618
1.281654777
1.289748984
1.28978604
1.289769696
1.2897501
1.28972309
1.289705854
1.289689032
1.289682271
1.289676964
1.289685924
1.289702755
1.289731586
1.289761936
1.289789822
1.289806621
1.28981147
1.289804196
1.289809455
1.293945952
1.281895037
1.289721884
1.289742877
1.289715791
1.289688982
1.289658266
1.289639429
1.28962536
1.289624883
1.289631035
1.289657372
1.289692379
1.289738442
1.289781475
1.289816609
1.289834756
1.289836616
1.289823342
1.289819741
1.293934023
1.282162411
1.289700145
1.289707452
1.289672145
1.289640236
1.289607389
1.289588281
1.289577175
1.289581515
1.289597824
1.289635891
1.289684048
1.289740722
1.289790914
1.289828937
1.289846211
1.289845298
1.289828778
1.289820734
1.293894506
1.28252743
1.289686294
1.289683157
1.289642838
1.289608428
1.289575194
1.289556915
1.289548872
1.28955764
1.289579999
1.289624498
1.289678443
1.289738024
1.289788985
1.289824922
1.289838997
1.28983565
1.289818895
1.28981191
1.293801186
1.282889423
1.289681455
1.289672112
1.289630517
1.289596007
1.289564269
1.289547569
1.28954239
1.289553789
1.289578544
1.289623538
1.289676175
1.289731051
1.28977609
1.289804953
1.289813778
1.289808824
1.289794731
1.289793628
1.293680749
1.283389063
1.289686217
1.289674168
1.289634829
1.289602034
1.289573607
1.28956073
1.289557819
1.289569211
1.289592406
1.289632754
1.289677774
1.289721539
1.289754569
1.289772296
1.289774454
1.289768518
1.289759707
1.289767994
1.293472769
1.283847768
1.289698216
1.289689012
1.289653711
1.289625676
1.289601231
1.28959051
1.289589332
1.289599578
1.289618764
1.289650695
1.289683509
1.289711559
1.289728193
1.289732377
1.289727414
1.289721212
1.289719599
1.289739349
1.293261179
1.28447472
1.289716165
1.289710415
1.289681866
1.289658099
1.289638315
1.289630547
1.289630752
1.289639276
1.289653086
1.289674706
1.289692848
1.28970306
1.28970157
1.289691785
1.289680111
1.289674045
1.289680238
1.289711655
1.292931397
1.28501847
1.289734795
1.289734009
1.289712642
1.289693824
1.289678772
1.289673694
1.289675201
1.289681715
1.289690058
1.28970111
1.289704607
1.289697702
1.289679281
1.289657326
1.289640234
1.28963457
1.28964705
1.289688747
1.292641183
1.28574846
1.289752458
1.289755765
1.289741153
1.289727211
1.289716405
1.289713877
1.289716198
1.289720907
1.289724392
1.28972621
1.289717222
1.289696736
1.289665484
1.289634618
1.289612544
1.289607462
1.289625029
1.289673249
1.292207896
1.286356331
1.289766054
1.289772489
1.289763435
1.289753743
1.289746512
1.289746015
1.289748946
1.289752139
1.289752026
1.289746985
1.289729799
1.289700919
1.289662207
1.28962701
1.289603293
1.289599397
1.28961905
1.289668818
1.291859379
1.287154691
1.289774967
1.289782236
1.289777356
1.289771272
1.289766856
1.289767587
1.289770464
1.289772561
1.289770267
1.289761903
1.289741751
1.289710167
1.289670583
1.289636067
1.289613127
1.289610022
1.289628913
1.289674807
1.291352606
1.287806425
1.289777468
1.289783894
1.289781785
1.289778244
1.28977587
1.289777065
1.289779553
1.289781063
1.289778172
1.289769658
1.289750886
1.289722669
1.289688859
1.289659913
1.289640644
1.289638509
1.28965414
1.289691223
1.29096996
1.288647422
1.289769927
1.289770994
1.289761707
1.289759656
1.289753309
1.289759553
1.289762238
1.289770199
1.289770352
1.289767991
1.289755726
1.289739929
1.28971959
1.289705012
1.289691376
1.289691088
1.289696892
1.28971925
1.290420587
1.289260128
1.286677746
1.286808016
1.284265155
1.284949217
1.283302491
1.284602009
1.284062208
1.28583772
1.286102837
1.288125168
1.288688757
1.29065523
1.290912373
1.29250174
1.291944128
1.292910432
1.291356817
1.291805147
1.289878859
1.277854467
1.289893093
1.290058536
1.2901243
1.290151908
1.290146146
1.290105083
1.290027821
1.289936123
1.289822723
1.289712102
1.289610253
1.289533836
1.289490314
1.289486073
1.289511028
1.289557176
1.289613249
1.289700576
1.296280982
1.277867095
1.289889965
1.290048661
1.290109372
1.290133629
1.29012564
1.290084311
1.290009031
1.289921147
1.289812985
1.289709513
1.289615959
1.289547762
1.289511072
1.289510683
1.289536753
1.289581465
1.289633992
1.289717275
1.296330126
1.277885939
1.28987082
1.290017242
1.290068474
1.290086466
1.290074706
1.290033097
1.289961458
1.289880971
1.289782588
1.289692982
1.289614411
1.289561329
1.289537116
1.289543897
1.289572108
1.289614044
1.289659954
1.289733129
1.296419105
1.27793496
1.289844341
1.289974393
1.290013114
1.290022246
1.29000604
1.289964384
1.289898496
1.289827445
1.289742837
1.289671375
1.289613147
1.289579775
1.289571883
1.289588074
1.289619152
1.28965733
1.289694323
1.289753962
1.296523873
1.278026008
1.289813314
1.289924496
1.289949001
1.289948796
1.289927887
1.289887065
1.289828589
1.28976841
1.289700153
1.289649343
1.28961301
1.289601553
1.289610782
1.289637071
1.289670993
1.289704813
1.289732042
1.289776391
1.296638169
1.278182696
1.289781304
1.289872729
1.289883115
1.289874015
1.289849011
1.289809712
1.289759676
1.289710064
1.289660344
1.289628727
1.289614574
1.289623386
1.289648217
1.289683544
1.289719513
1.28974893
1.289767039
1.28979648
1.296716685
1.27842215
1.289751879
1.28982433
1.289822201
1.289805731
1.289777855
1.289741096
1.289699046
1.289660858
1.289626908
1.289613774
1.289617374
1.289642592
1.289678886
1.289720347
1.289756865
1.289782338
1.289793049
1.289810978
1.296755229
1.278748282
1.289728016
1.289784073
1.289772177
1.289750681
1.289721422
1.289687855
1.289653031
1.289624345
1.289603753
1.289604286
1.289621023
1.289656058
1.289698534
1.289742007
1.289777222
1.289799406
1.289805518
1.28981678
1.296710236
1.279189606
1.28971208
1.289755238
1.289737022
1.289713348
1.289684473
1.289654476
1.28962585
1.289605208
1.289593697
1.289602101
1.289625233
1.289663011
1.28970524
1.289746078
1.289778047
1.289797779
1.289802707
1.289812422
1.296584375
1.279713261
1.28970549
1.28973998
1.289719453
1.289696135
1.289669393
1.289642821
1.28961874
1.28960325
1.28959633
1.289606826
1.289629484
1.28966278
1.289698487
1.28973224
1.289759158
1.289777698
1.28978453
1.289797738
1.296344763
1.280381356
1.289708562
1.289737917
1.289718775
1.289697794
1.289674541
1.289651746
1.289631245
1.289617293
1.289610288
1.289617704
1.289633797
1.289656728
1.28968039
1.289703434
1.289724062
1.289742183
1.289754166
1.289774765
1.296007825
1.28110018
1.289719097
1.289748117
1.289732606
1.289716212
1.289696836
1.289676308
1.289657113
1.289642663
1.289632748
1.289633315
1.28963857
1.289647025
1.289655099
1.289665441
1.289679196
1.289697489
1.289716417
1.289746863
1.295575299
1.281972106
1.289735707
1.289764558
1.289754949
1.289742844
1.289727323
1.289709094
1.289690463
1.289674248
1.289659665
1.289651612
1.289644094
1.28963657
1.289627943
1.289625094
1.289632038
1.289650765
1.289676729
1.289718084
1.295038343
1.282843429
1.289753106
1.289782922
1.289779479
1.289771786
1.289759894
1.289743479
1.289725006
1.289706578
1.289687228
1.289670469
1.28965086
1.289628556
1.289604987
1.289590348
1.289590752
1.289610082
1.28964195
1.289692886
1.294459354
1.283872199
1.289769255
1.28979881
1.289800734
1.289797108
1.289788156
1.289773361
1.289755131
1.289735102
1.289712164
1.289688659
1.289659415
1.289625841
1.289590572
1.289567219
1.289563808
1.289582437
1.289618569
1.289675111
1.293771867
1.284833817
1.289780691
1.289808515
1.289814296
1.289813686
1.289807191
1.289794284
1.289777201
1.289757017
1.289732791
1.289705774
1.289671428
1.289631881
1.289591205
1.289563921
1.289557858
1.289575007
1.289611087
1.289668561
1.293117757
1.285956574
1.289786913
1.289810609
1.289818182
1.289819398
1.289814836
1.289804197
1.289789051
1.289770552
1.28974771
1.289721005
1.28968709
1.289647459
1.289607389
1.289580425
1.289573368
1.289587932
1.289620687
1.28967346
1.292335658
1.286958831
1.289786286
1.289804169
1.289811461
1.289813238
1.289810297
1.289802427
1.289790607
1.289775699
1.289757048
1.289734542
1.2897061
1.289672495
1.289639024
1.289616665
1.289609976
1.289621307
1.289647266
1.289689776
1.291664194
1.288132991
1.289773704
1.289776411
1.289771519
1.289767218
1.289762344
1.289760806
1.289759499
1.289758889
1.289752993
1.289743615
1.289726448
1.289709904
1.289690497
1.289682
1.289675099
1.289683484
1.289693593
1.289718954
1.290833616
1.288379234
1.286008746
1.284774278
1.282481609
1.281979408
1.280983053
1.281530773
1.282020596
1.283700344
1.284989798
1.287498813
1.288711461
1.291567363
1.291809016
1.2945349
1.29305788
1.295188967
1.291895906
1.293441319
1.289491118
1.274518096
1.289934967
1.290184976
1.290301515
1.29034959
1.290347109
1.29027385
1.290140673
1.289983669
1.28980032
1.289630787
1.289479935
1.289369968
1.28930645
1.289303018
1.289348438
1.28942904
1.289524871
1.289651433
1.299902325
1.274510055
1.289930356
1.290172767
1.290282992
1.290327794
1.290323819
1.290252339
1.290123359
1.289971693
1.289795063
1.289633492
1.289490998
1.289389264
1.289332559
1.28933306
1.28937924
1.289457427
1.28954866
1.289671138
1.299990535
1.27446844
1.289908224
1.290136926
1.290235283
1.290274401
1.290267952
1.290199347
1.290078032
1.289936923
1.289772986
1.289627269
1.289499275
1.289412805
1.289368723
1.289376431
1.289423811
1.289497514
1.289580268
1.28968996
1.300195018
1.274468127
1.289878312
1.29008823
1.290170268
1.290202187
1.290192855
1.29012869
1.290018414
1.289891105
1.289745096
1.289618493
1.289511421
1.289444158
1.289417158
1.289433857
1.28948296
1.289550606
1.289622312
1.289715068
1.300398186
1.274489785
1.289843548
1.290031533
1.290095411
1.290119257
1.290106979
1.290048266
1.289951093
1.289840568
1.28971504
1.289611374
1.289526481
1.289480321
1.289470833
1.289497811
1.289548607
1.289609638
1.289668887
1.289743183
1.300662367
1.274611281
1.289808
1.289972681
1.290018688
1.290034427
1.29001981
1.28996734
1.289884527
1.289790234
1.289687389
1.289603906
1.289542762
1.289516345
1.289523161
1.289559173
1.289611421
1.289666201
1.289713271
1.28976982
1.300832208
1.274842
1.289775302
1.289917751
1.289948423
1.28995617
1.289940375
1.289894579
1.289825091
1.289748052
1.289664805
1.289601781
1.289558788
1.289549485
1.28956824
1.289610692
1.28966315
1.289712675
1.28974945
1.289790789
1.30094275
1.275181298
1.289748935
1.289871881
1.289890609
1.289892349
1.289876429
1.289836707
1.289778661
1.289715189
1.28964896
1.289600682
1.28957284
1.289574209
1.289600454
1.289645443
1.289696836
1.28974237
1.289772148
1.289802769
1.300914441
1.275726573
1.289732036
1.289838691
1.289849383
1.289848297
1.289833017
1.289798782
1.28974977
1.289697288
1.289643079
1.289605174
1.28958476
1.289590402
1.289617447
1.289660588
1.289709078
1.289751984
1.289778791
1.289804166
1.300697753
1.276336565
1.289724671
1.289819928
1.289827231
1.289825818
1.289812281
1.2897818
1.289739272
1.289693376
1.289646362
1.289612298
1.2895936
1.289596426
1.289618008
1.289655198
1.289699321
1.289740871
1.289768564
1.289794342
1.30035978
1.277248337
1.289728843
1.289815241
1.289823344
1.289823966
1.289812382
1.28978542
1.289745624
1.289702384
1.289657456
1.289622875
1.289600154
1.289594182
1.289604559
1.289632133
1.289670653
1.289711676
1.289743527
1.289774855
1.299739023
1.278122567
1.289739721
1.289821877
1.289833008
1.289837036
1.289828088
1.2898021
1.289763625
1.289719949
1.289674117
1.289635147
1.289604142
1.289585872
1.289582124
1.289597645
1.289628504
1.289669803
1.289707571
1.289748015
1.299092687
1.279371309
1.289757579
1.289834866
1.289850971
1.289858296
1.28985137
1.289825904
1.289787055
1.289741965
1.289693368
1.289648122
1.289607311
1.28957539
1.289555862
1.289558144
1.28958171
1.289622907
1.289667479
1.28971863
1.298107852
1.280444694
1.289774491
1.289848471
1.289869562
1.289879804
1.289874727
1.289849167
1.289809904
1.289763225
1.289712078
1.289661028
1.28961093
1.289566462
1.289533168
1.289523641
1.289540794
1.28958137
1.289631045
1.289691767
1.297244879
1.281940084
1.289790941
1.289858209
1.289882914
1.289895399
1.289891461
1.28986666
1.289827529
1.289780584
1.289728344
1.289673725
1.289617727
1.289564514
1.289521759
1.28950354
1.289514796
1.289552808
1.289605144
1.289671797
1.296015054
1.283127538
1.289800212
1.289859887
1.289886032
1.289899358
1.289896214
1.289872956
1.289835986
1.289791131
1.289740927
1.289686653
1.289629379
1.289573445
1.289527157
1.289504566
1.289511086
1.289545211
1.289595943
1.289663052
1.295055935
1.284746567
1.2898042
1.289852328
1.289877131
1.289889531
1.289886831
1.289866514
1.289834225
1.289794583
1.289749824
1.289700622
1.289647801
1.289595523
1.289551418
1.289528624
1.289531922
1.289560474
1.289605694
1.289667148
1.293716755
1.285982176
1.28979946
1.289834927
1.289855167
1.289865194
1.289862949
1.289847216
1.289822144
1.289790985
1.28975563
1.28971613
1.289673459
1.289631268
1.289595107
1.289575951
1.289577343
1.289598848
1.289634317
1.289683636
1.292752255
1.28765169
1.289776131
1.289791322
1.289779105
1.289788496
1.289770962
1.289777826
1.289765086
1.289764029
1.289748349
1.289730831
1.289705925
1.289685651
1.289666805
1.289658695
1.289658764
1.289670328
1.289687372
1.289714955
1.291380492
1.288805801
1.283866424
1.284090429
1.27917623
1.280424662
1.277451746
1.27990955
1.279519747
1.282810182
1.284092312
1.287654613
1.289508844
1.292784268
1.294086228
1.296471734
1.296118788
1.2969461
1.294367476
1.294036476
1.29079199
1.268154054
1.28992881
1.290307902
1.290477366
1.290549181
1.290554586
1.290459423
1.290279861
1.290059263
1.289806672
1.289572068
1.28936234
1.289208262
1.289117577
1.289106828
1.289166131
1.289275107
1.289411038
1.289580744
1.305762921
1.268070126
1.289921528
1.290292542
1.290454737
1.290523846
1.290528858
1.290437158
1.290263373
1.290049988
1.289805655
1.289579294
1.289378999
1.289233032
1.289148772
1.289142609
1.289202704
1.289308762
1.289438557
1.289605007
1.306006779
1.267873006
1.289894211
1.290250721
1.290399554
1.290464053
1.290468513
1.290383543
1.290220767
1.290021525
1.289792189
1.289583285
1.289398177
1.28926776
1.289195774
1.289196892
1.289257902
1.289357967
1.289476775
1.289626836
1.306490089
1.267697842
1.289857833
1.290194122
1.290324654
1.290383165
1.290386866
1.290309835
1.290163592
1.289981903
1.289774413
1.289586593
1.289422862
1.28931141
1.289256094
1.289267151
1.289331107
1.28942375
1.289527971
1.289656315
1.307077978
1.267506712
1.289815832
1.290128789
1.290238589
1.29029027
1.29029305
1.290226172
1.290098477
1.289939292
1.289755696
1.289594007
1.289453015
1.289363901
1.289326692
1.28934839
1.289413144
1.289497209
1.289585567
1.289689119
1.307749386
1.267490754
1.289774398
1.290061988
1.290150341
1.290195171
1.290197363
1.290140491
1.290032452
1.289895336
1.289738317
1.2896011
1.289484926
1.289414737
1.289395707
1.289427308
1.289492642
1.289568466
1.289641826
1.2897212
1.308272953
1.267606568
1.289737539
1.289999984
1.290069108
1.290107513
1.290109719
1.290062987
1.289972874
1.289857385
1.289722693
1.289608897
1.289513762
1.289462213
1.289456766
1.289495764
1.289560379
1.289628851
1.289689776
1.289747803
1.308662057
1.267990534
1.289710607
1.289948908
1.290002753
1.29003599
1.290038391
1.289999729
1.289924692
1.289826293
1.289712227
1.289615283
1.28954079
1.289499055
1.289503484
1.289545337
1.289608784
1.289671694
1.289723646
1.289765949
1.30871886
1.268635687
1.289696214
1.289912641
1.289955913
1.289985718
1.289988625
1.289956399
1.289892247
1.289807147
1.289707493
1.289622697
1.289558422
1.289524323
1.289531685
1.289572808
1.289633774
1.289692874
1.289740263
1.28977314
1.308472499
1.269553864
1.289694715
1.289892711
1.289930216
1.289958409
1.289961753
1.289933335
1.289876325
1.289799689
1.289710821
1.289631508
1.289571281
1.28953693
1.289541364
1.28957743
1.289634609
1.289692254
1.289738794
1.289769306
1.307833158
1.270815589
1.289706553
1.289887673
1.289924641
1.289952815
1.289956547
1.289929681
1.289875841
1.289803184
1.289719171
1.289641066
1.289577841
1.289539505
1.289534527
1.289562096
1.289613422
1.28967047
1.289720406
1.289754608
1.306829374
1.272254173
1.289727005
1.289894071
1.289933415
1.289963061
1.289967209
1.289940446
1.2898872
1.289814977
1.289732201
1.289652869
1.289583659
1.289535663
1.2895175
1.289532562
1.289577039
1.289633918
1.289688655
1.289731966
1.305503882
1.274058578
1.289753394
1.289906197
1.289950185
1.289980862
1.289984757
1.289957359
1.289903693
1.289831085
1.289747509
1.289664593
1.289587974
1.289529055
1.289495867
1.28949797
1.289534399
1.28958987
1.289650491
1.289705688
1.303850328
1.275863747
1.28977884
1.289917532
1.289965788
1.289997234
1.290001273
1.289972722
1.289917863
1.2898455
1.289761767
1.28967623
1.289593409
1.289524796
1.289478739
1.289469034
1.28949639
1.289549918
1.289613907
1.289680285
1.302088681
1.2780282
1.289801681
1.289922957
1.289973519
1.290004375
1.290007776
1.289978801
1.289924892
1.289854356
1.289772824
1.289687222
1.289601486
1.289526906
1.289472216
1.289453351
1.289473109
1.289522151
1.289587399
1.289661289
1.300075762
1.279980733
1.289814751
1.28991778
1.28996737
1.289995874
1.28999859
1.28997084
1.289920101
1.289854606
1.289778885
1.289697927
1.289614686
1.289540355
1.289483884
1.289460167
1.289472877
1.289516023
1.289577999
1.289653081
1.298260471
1.282298986
1.289820092
1.289900822
1.289945336
1.289969941
1.28997158
1.289947116
1.289903032
1.28984596
1.289780179
1.289709007
1.289635016
1.289568003
1.289515892
1.289491522
1.289498688
1.289534203
1.289588769
1.289658255
1.296153417
1.284267391
1.289813781
1.289871316
1.289906684
1.289925285
1.289926271
1.289907198
1.289873264
1.289828824
1.289777713
1.289721661
1.289663272
1.289610368
1.289568334
1.289547164
1.28955058
1.28957705
1.289619815
1.289675602
1.294462833
1.286618336
1.289780489
1.289793853
1.289781856
1.289779573
1.289766296
1.289766796
1.289766858
1.289766622
1.289754202
1.289731694
1.28970037
1.289677293
1.289655006
1.289643471
1.289644762
1.289654235
1.289679324
1.289707232
1.292361077
1.287207281
1.282354549
1.280137338
1.275327607
1.274403885
1.27243365
1.273523782
1.275246771
1.278568258
1.281974834
1.286590882
1.289882509
1.29496809
1.296505602
1.301202
1.299172042
1.30221908
1.295981841
1.297664186
1.290192238
1.261649978
1.289883943
1.290409293
1.290617629
1.290712245
1.290725712
1.290618413
1.290407421
1.290139408
1.289831548
1.289541082
1.289274665
1.289077187
1.2889608
1.28894006
1.289001935
1.28912693
1.28929402
1.28948775
1.313477434
1.261435979
1.289872974
1.290390747
1.290591473
1.290684554
1.290698721
1.290596165
1.290392744
1.290134468
1.289835813
1.289553559
1.289298075
1.289108983
1.288998831
1.288982273
1.289044286
1.289165184
1.289325289
1.289516179
1.313920622
1.260964573
1.289837497
1.290342744
1.290529539
1.290619056
1.290634238
1.290538971
1.290350794
1.290110479
1.28982858
1.289566022
1.28932384