/*--------------------------------*- C++ -*----------------------------------*\
| =========                 |                                                 |
| \\      /  F ield         | OpenFOAM: The Open Source CFD Toolbox           |
|  \\    /   O peration     | Version:  5.x                                   |
|   \\  /    A nd           | Web:      www.OpenFOAM.org                      |
|    \\/     M anipulation  |                                                 |
\*---------------------------------------------------------------------------*/
FoamFile
{
    version     2.0;
    format      ascii;
    class       surfaceScalarField;
    location    "2";
    object      phi;
}
// * * * * * * * * * * * * * * * * * * * * * * * * * * * * * * * * * * * * * //

dimensions      [1 0 -1 0 0 0 0];

internalField   nonuniform List<scalar> 
91025
(
-0.546995718
-0.03589542423
-0.09566686205
-0.5629546935
-0.1176167787
-0.1500221558
-0.5301094395
-0.1540932221
-0.2548069758
-0.522003523
-0.1897787339
-0.2003095477
-0.5057402872
-0.1669981193
-0.1844903021
-0.6028923329
-0.1402723948
-0.04872917208
-0.7699167624
-0.07383355456
0.0331385254
-0.9873693003
-0.009474075091
0.1796300264
-1.165274242
0.07512220575
0.2939734657
-1.216732073
0.1530719075
0.4265603291
-1.078706626
0.2424074795
0.5395788273
-0.7629189443
0.3231502482
0.639413128
-0.3226361437
0.4119588158
0.7052809926
0.2025694418
0.47951873
0.7401304208
0.7479897369
0.5359841359
0.7308806606
1.285854175
0.5450855148
0.6914704299
1.779366887
0.5155194386
0.5973246188
2.179936537
0.4214327063
0.4764987389
2.448836554
0.2821544189
0.2914004769
0.09612451138
0.1070059146
-0.5802597732
-0.07126508742
-0.09525675639
-0.5877697431
-0.2334586774
-0.1470107187
-0.540138886
-0.3075842456
-0.252104213
-0.5178258582
-0.3787805962
-0.1976991719
-0.4875807017
-0.3344560513
-0.1844521937
-0.5739912239
-0.2819530735
-0.0504019109
-0.7329339101
-0.1503909888
0.02839322821
-0.9473195588
-0.02279104994
0.1730309913
-1.123487257
0.1449305107
0.2850197733
-1.174108435
0.2983128118
0.4152438099
-1.036891675
0.4743877862
0.5265150821
-0.7223755828
0.6317311629
0.624168632
-0.2866003032
0.8048838743
0.6889809634
0.226924459
0.9362801354
0.7229794052
0.7546269045
1.044949961
0.7142372351
1.268439586
1.062946829
0.6755187308
1.73405172
1.003173393
0.5833729797
2.107759702
0.8189099919
0.4651968711
2.357096544
0.5480555223
0.2844638297
0.1866831355
0.1043640309
-0.6476823341
-0.1063621955
-0.0935530547
-0.6380814388
-0.345012848
-0.1415182354
-0.5616190972
-0.4584317587
-0.2460928233
-0.5106325405
-0.5639713667
-0.1928236439
-0.4529904349
-0.5011565623
-0.183353173
-0.5181016574
-0.4243974376
-0.05334395057
-0.6611545933
-0.2307740819
0.01981549649
-0.8701770212
-0.04275094822
0.1607418294
-1.042987629
0.2056085912
0.2675164916
-1.092593391
0.4294238927
0.394048394
-0.9560888486
0.6882055604
0.5004646112
-0.6440656051
0.9139943006
0.5955529071
-0.2168546863
1.163895525
0.657519036
0.2750210265
1.349790338
0.6908333297
0.7684283877
1.504822615
0.6820880361
1.235982319
1.527939325
0.6450686272
1.647741312
1.438961358
0.5563016612
1.970174271
1.171503456
0.4435706058
2.182233235
0.7837155322
0.2707383726
0.2665064961
0.09938150043
-0.7476192293
-0.1398813398
-0.09167739565
-0.7123840376
-0.4496278521
-0.1326284832
-0.5937177815
-0.6005538621
-0.2377375845
-0.4996407676
-0.7395165546
-0.1841915979
-0.4016905231
-0.6606697258
-0.181375162
-0.435020237
-0.5636057324
-0.05616091313
-0.5541031072
-0.3122871145
0.008291903775
-0.7550641916
-0.07058190651
0.1437754513
-0.923786748
0.2539524469
0.2443841145
-0.9725798513
0.5403430964
0.3645978662
-0.8392487266
0.875138922
0.4664106875
-0.5323226582
1.159273906
0.555637858
-0.1181077299
1.474849682
0.6145177715
0.3421364712
1.703810952
0.6448631756
0.7855891862
1.894542059
0.6365659084
1.185875814
1.916027875
0.6008255135
1.521343807
1.801108184
0.5172550664
1.77160883
1.461007374
0.412017213
1.93154711
0.976350531
0.2509369583
0.3310720748
0.0919855519
-0.8804365077
-0.1701077697
-0.0877896215
-0.8106512359
-0.5419660191
-0.1218888905
-0.6383200484
-0.7257545675
-0.2248731753
-0.4868766742
-0.8946104949
-0.1722064439
-0.3369328002
-0.8030379606
-0.1755849276
-0.328347155
-0.6903620353
-0.05792191988
-0.4172874619
-0.3877714729
-0.003550311523
-0.6061621293
-0.1053622354
0.1238715965
-0.7684091932
0.2895242601
0.2152103587
-0.8187500547
0.6280788127
0.3291712322
-0.6877784256
1.031386022
0.4220466784
-0.3891195534
1.361054957
0.5067988054
0.005454282185
1.731968547
0.5599477722
0.4251780949
1.984899358
0.5875933917
0.8048942593
2.200521307
0.5784817668
1.120442029
2.212050962
0.5451717837
1.361025052
2.074918103
0.4674803742
1.522628627
1.67456224
0.3723271843
1.619358201
1.117906365
0.2255996338
0.3770692216
0.08273736294
-1.04127591
-0.1910495197
-0.08333271212
-0.9278860131
-0.6163046179
-0.1080999177
-0.6922740136
-0.8199402105
-0.2086427217
-0.4716250103
-1.014282347
-0.155489063
-0.2596276456
-0.9113694906
-0.1666647597
-0.2002633701
-0.7898010169
-0.05701407362
-0.2553915059
-0.4455465028
-0.01216892278
-0.4268432785
-0.1412761142
0.1029915474
-0.5805972759
0.3140630737
0.1865093887
-0.6347900269
0.6915140714
0.2914733979
-0.5089168673
1.15282194
0.3776276521
-0.222417201
1.514017068
0.4529816591
0.1467544925
1.929494333
0.5009340608
0.5154281742
2.19150091
0.5232863715
0.8211296669
2.414449749
0.513107114
1.039409901
2.409972396
0.4811503025
1.172822711
2.252346338
0.4102868048
1.234987609
1.806910945
0.3264673409
1.261879172
1.204845974
0.1965150592
0.4036733998
0.07197748399
-1.227533756
-0.1991541273
-0.07664083677
-1.062001185
-0.6629133434
-0.09287247441
-0.7560660411
-0.868815729
-0.1870997541
-0.4567442994
-1.080668651
-0.135200159
-0.1748523355
-0.9681378365
-0.1523737903
-0.05765353828
-0.8442177848
-0.05278823836
-0.07776492546
-0.4705423032
-0.01849638311
-0.2245468373
-0.1642130291
0.08419603566
-0.3692882811
0.3370829378
0.156996955
-0.4258262065
0.7356636609
0.2540168771
-0.3071207693
1.242796625
0.3285189434
-0.03364936936
1.624315963
0.3976103376
0.2969943797
2.061200867
0.4373020975
0.6088810184
2.3188147
0.4554293915
0.8328215823
2.537256502
0.4424851521
0.9461742576
2.509878621
0.4124258051
0.9648921853
2.33424292
0.348321777
0.9219877499
1.859715519
0.2770347399
0.8760545785
1.237728577
0.1653565675
0.4110657035
0.06036159337
-1.42195499
-0.1912891482
-0.06976917748
-1.201182319
-0.6711633652
-0.07497922468
-0.8215834793
-0.857725725
-0.162566166
-0.4399180408
-1.078618466
-0.1106938278
-0.08438272529
-0.9562425364
-0.1332559661
0.0904021294
-0.8385085267
-0.04360203196
0.1119926247
-0.4543752963
-0.01996459292
-0.003130042633
-0.1542975119
0.07127301396
-0.1445151205
0.3632999223
0.1344599367
-0.1987146182
0.7665335616
0.2197232481
-0.09268694779
1.301184782
0.28743085
0.1522875793
1.688501845
0.3444402153
0.4433949383
2.123852073
0.3766748273
0.6957208883
2.367496152
0.3873608572
0.8341894661
2.570139843
0.3716638605
0.8409104362
2.514668596
0.3422090326
0.7444806244
2.324467135
0.2847513418
0.5980295934
1.835848978
0.2260811661
0.4814195333
1.220791139
0.1330996434
0.3999872332
0.04882291676
-1.618371878
-0.1636649206
-0.06146722487
-1.340480746
-0.6273328668
-0.05669594101
-0.8873831426
-0.771044351
-0.1349636294
-0.4242169603
-0.9901783255
-0.08428920756
0.004110720181
-0.8529557038
-0.1094289379
0.2381656928
-0.7591749059
-0.0303829529
0.3036165639
-0.3838335028
-0.01670799441
0.2110709267
-0.1044340289
0.06435820643
0.08735282071
0.402702992
0.115436886
0.03826788399
0.7940427485
0.1912737389
0.1254307666
1.329275692
0.2472961006
0.3406480614
1.704643426
0.2951305771
0.5860136968
2.123393695
0.317812995
0.7750866872
2.337073789
0.3220959348
0.8254247301
2.514125503
0.3026421663
0.7269509682
2.426182026
0.2735200488
0.5191245658
2.227332409
0.2226611437
0.2771533728
1.737208518
0.1756719562
0.09416778378
1.155930467
0.1015014228
0.3733414136
0.03756291752
-1.7949922
-0.113064413
-0.05320626936
-1.463117924
-0.5237880162
-0.03806618428
-0.9428575179
-0.598307109
-0.1067297248
-0.4047895558
-0.8022781383
-0.05642678667
0.0955734427
-0.6472029433
-0.08161404541
0.3805514137
-0.5933274387
-0.01309987801
0.4860219351
-0.2460546816
-0.006557699262
0.4228430461
-0.007791896442
0.06329509736
0.314828637
0.4639874716
0.104495752
0.262419974
0.8183906358
0.1674236024
0.333545162
1.327298029
0.2139992161
0.5163959121
1.67077546
0.2496575265
0.7131923986
2.055404725
0.2637637646
0.8369157195
2.224860529
0.260247159
0.8020479472
2.365909603
0.2365932928
0.6050177968
2.242765448
0.2075243837
0.2971083389
2.043353515
0.1622716676
-0.02825602524
1.564208587
0.1270164549
-0.271712851
1.046147105
0.07033598627
0.3288083372
0.02669072973
-1.940279794
-0.04032386903
-0.04524424937
-1.56332597
-0.3611729332
-0.02225329717
-0.9870752053
-0.3391873522
-0.0814098716
-0.3865032461
-0.5126640217
-0.03094368541
0.1720967755
-0.3395001478
-0.05486847498
0.5030858503
-0.3354994601
0.006505954583
0.6512493746
-0.02453414435
0.006818204011
0.6204067584
0.1342409646
0.06664561478
0.529119546
0.5469967343
0.09601470689
0.4764597042
0.834791953
0.1479445745
0.5302056363
1.291500208
0.1825120328
0.6777997923
1.578599179
0.208746744
0.8251332979
1.913084973
0.2139278968
0.8822910065
2.022888685
0.2037710996
0.7662064643
2.118387837
0.1766329789
0.4794158789
1.960729819
0.1467109534
0.0827717352
1.772284722
0.1078618666
-0.3137873362
1.319632749
0.08168073308
-0.6049219078
0.8874717164
0.04170506872
0.2678543919
0.0157082979
-2.027817421
0.04886582803
-0.03759764453
-1.620832755
-0.1501859029
-0.0099332117
-1.005080226
-0.002955980534
-0.05859894589
-0.3629523249
-0.1361702282
-0.00949737787
0.2356179203
0.05759126272
-0.02834038521
0.6049050101
0.007110585893
0.02720968525
0.7836205249
0.2475681939
0.02483565625
0.781827405
0.3146821548
0.07173121019
0.7091438171
0.6423326986
0.09198751613
0.65976759
0.8373805871
0.1305595666
0.6961924861
1.217285402
0.1546454842
0.8077292431
1.423801857
0.1696636549
0.9065266848
1.688227601
0.1667838581
0.9000010955
1.724717395
0.1505317124
0.7147503626
1.769393265
0.1195153851
0.355510705
1.581079412
0.09048619145
-0.1067537372
1.408734267
0.05576393155
-0.5579625492
1.011435033
0.04039471316
-0.8838953424
0.685154868
0.01382055039
0.1915618084
0.006144521865
-2.052984804
0.1466889474
-0.03148865175
-1.629588172
0.09105272114
-0.001475411759
-0.9990572533
0.3650478219
-0.04175569368
-0.335874419
0.2871129064
0.007278012922
0.2775606415
0.4975730822
-0.009229472279
0.6700137364
0.3867711291
0.04324766398
0.8738835629
0.5597950973
0.03694652851
0.9003852961
0.5193516301
0.07539878754
0.8497823439
0.7434465072
0.08590303334
0.8076628912
0.8226919228
0.1144048481
0.8306239155
1.101771691
0.1274576168
0.907181497
1.20266079
0.1339163118
0.9589444505
1.378099565
0.1243869122
0.8946737379
1.329181083
0.1036498433
0.6520944062
1.322049239
0.0717751474
0.2379311039
1.109715604
0.04224282373
-0.2688771979
0.95960104
0.01325568013
-0.7561578156
0.6397103753
0.004566055304
-1.103381248
0.4419742204
-0.008053143371
0.1016622928
-0.002998440125
-1.99351074
0.2465008932
-0.02542929121
-1.574855004
0.3401113111
0.003650235489
-0.9569367852
0.7493305887
-0.02756362313
-0.3036766518
0.7275677628
0.01869178303
0.2988544288
0.957356963
0.008512572813
0.6965014494
0.7902125407
0.05422689519
0.9122200079
0.889450592
0.04876574477
0.96157706
0.7337366586
0.07629567894
0.9308006572
0.8410902548
0.08079053826
0.8982229619
0.787686925
0.09732277085
0.9094758529
0.9452187097
0.101279849
0.9553910698
0.920916899
0.09899342803
0.9661924169
0.9918061368
0.08351680836
0.8576240871
0.848660297
0.06017093358
0.5782606431
0.7883829228
0.02671703875
0.1319752787
0.5521995831
-4.586908523e-05
-0.3912214564
0.4373600369
-0.02359222539
-0.8886354981
0.210876114
-0.02387822365
-1.238682045
0.164552266
-0.02774157711
-0.001995521188
-0.009298632296
-1.859531431
0.3435550202
-0.02171863757
-1.465357987
0.583525384
0.006078475204
-0.8852598687
1.127174933
-0.0199702166
-0.2704347161
1.161184004
0.02406446197
0.2980324
1.411792166
0.01632407798
0.6820029986
1.190610193
0.05822901856
0.8997374776
1.215544586
0.05028898491
0.9649852994
0.9399951192
0.07253624176
0.9540840128
0.9254073541
0.07023086693
0.9327877744
0.7293171253
0.07991083128
0.9376342821
0.753102537
0.07607276181
0.9598659748
0.5893027138
0.06854109176
0.9352497892
0.5460812206
0.05025539102
0.7973058971
0.3051662896
0.0260969762
0.4985941924
0.1877584561
-0.003918604515
0.04163315298
-0.07235770633
-0.02741496356
-0.4716826475
-0.1375928388
-0.04580541539
-0.9549787701
-0.255617594
-0.04382284412
-1.293079332
-0.1381715325
-0.03886833227
-0.1119408163
-0.01477350258
-1.640868541
0.4302422979
-0.01689442113
-1.291004175
0.8071695765
0.005710759083
-0.776163461
1.472696363
-0.01231592774
-0.2290840414
1.562963663
0.02503962837
0.278070884
1.831283205
0.02351866146
0.6269435706
1.564001132
0.05699716211
0.8303687713
1.515563699
0.0519213727
0.9011675664
1.125031392
0.06510730816
0.9034776477
0.9893525029
0.06046148009
0.8912233724
0.6519057499
0.06165628687
0.8911465796
0.5388649656
0.05308445376
0.8972650404
0.234502052
0.0409895221
0.8518342303
0.07563962347
0.02059535329
0.7024172318
-0.2634736246
-0.0020488126
0.4070591279
-0.439982027
-0.02922813577
-0.02336170407
-0.7113865639
-0.04717104637
-0.4941934692
-0.7167077977
-0.06249159444
-0.9329502378
-0.7230733793
-0.05504669646
-1.23927
-0.4406806484
-0.0469103182
-0.223474648
-0.01620292229
-1.357960215
0.5016417133
-0.01446328929
-1.068218632
0.9902296189
0.004743175017
-0.6407039099
1.758034805
-0.01055114696
-0.1859768062
1.895078264
0.02210603568
0.237983427
2.180908119
0.020234034
0.5329917259
1.875320592
0.04970197111
0.7103326616
1.764583073
0.04278546172
0.7790843178
1.273068799
0.05381765705
0.7925577131
1.030195111
0.04591535512
0.7889539108
0.5638168593
0.04489362224
0.7878008971
0.3242785578
0.03371049343
0.7823062442
-0.1074841421
0.02126661044
0.7270178402
-0.374494065
0.002709465106
0.5832584806
-0.8022111135
-0.0157951859
0.3158501349
-1.030958946
-0.03697820893
-0.05925373829
-1.305381567
-0.05219456446
-0.4655099351
-1.254249144
-0.06152074341
-0.8377930407
-1.153955974
-0.055463604
-1.097666993
-0.7198952226
-0.04370145793
-0.3252306452
-0.01635849256
-1.008333278
0.5524719153
-0.009511713316
-0.7928433967
1.124573645
0.002677780567
-0.4745012405
1.965234847
-0.005432165826
-0.1349646061
2.138895136
0.01722203629
0.1817550858
2.434956694
0.01968544079
0.4047304841
2.102784696
0.03892722046
0.54038127
1.943448833
0.03608272515
0.5974786198
1.378757981
0.04025556516
0.6135966957
1.053840135
0.03429690033
0.6138790913
0.4883221717
0.02912865768
0.6111758357
0.145164222
0.0185014505
0.6020826126
-0.3908879966
0.006297484168
0.5521760524
-0.7476054044
-0.008517580518
0.433909324
-1.246710945
-0.02287600513
0.2222658584
-1.515731322
-0.0401722962
-0.06727730272
-1.789674947
-0.04891772001
-0.3772395096
-1.687469804
-0.05617606659
-0.6585208241
-1.499890784
-0.04800183322
-0.8542097502
-0.941603516
-0.03832510918
-0.4063746227
-0.01274365408
-0.6252268925
0.5839577716
-0.006970081992
-0.4925182317
1.204279174
0.001827616851
-0.2948907163
2.089884024
-0.005091128927
-0.08439751894
2.2860178
0.0108606767
0.1129068167
2.589574985
0.01012423644
0.2514632528
2.241378085
0.02434066133
0.338518175
2.055048843
0.02026329389
0.3770047773
1.444729522
0.02500514023
0.3909913296
1.06855945
0.01936993395
0.3948821193
0.4388069251
0.0171250048
0.3948291068
0.02875526401
0.00928100663
0.3871664373
-0.574889533
0.001482514187
0.3500155702
-0.9888307451
-0.00724176487
0.2715708676
-1.532722425
-0.01666618238
0.1329439771
-1.826695702
-0.02583847927
-0.05142048549
-2.097244564
-0.03245295198
-0.2486627774
-1.962020218
-0.03471814832
-0.4241986472
-1.717102498
-0.03136278619
-0.5473224013
-1.081176891
-0.0230654123
-0.4565342126
-0.008887859188
-0.2069034196
-0.001418230681
-0.1622239006
0.0001517876119
-0.09546878577
-7.434156574e-05
-0.02509067021
0.004040724625
0.040557171
0.006208226196
0.08628997824
0.008952790974
0.1146008364
0.009455913254
0.1265435202
0.008542368765
0.131137629
0.007651880619
0.1337624407
0.004763984524
0.1349446503
0.001705288669
0.1319745829
-0.001766424197
0.1196024196
-0.005429635479
0.091839485
-0.008373936349
0.04402579097
-0.01262732152
-0.02036805966
-0.01337532717
-0.08803546086
-0.0151404855
-0.1486849459
-0.01178435282
-0.1896771612
-0.009905729992
-0.002561181974
-0.7392351412
-0.03318923963
-0.173425683
-0.6543126283
-0.1074742679
-0.2670606035
-0.5113053978
-0.1450510388
-0.4620845718
-0.4032246148
-0.1847306928
-0.3528024526
-0.3213898529
-0.168154902
-0.3284902111
-0.3824521683
-0.1505984532
-0.07725030166
-0.5378841594
-0.09005420602
0.06870461435
-0.7509267503
-0.03575842774
0.3270822329
-0.9379290483
0.04020809186
0.5317567217
-1.005202423
0.1085172427
0.7620545679
-0.9077367344
0.190347988
0.961469987
-0.6455799702
0.2635305051
1.13183794
-0.2711646052
0.3472031826
1.248089757
0.182320174
0.4129537552
1.31012827
0.6556502495
0.4712348802
1.296281551
1.114076976
0.4853196297
1.232218624
1.528930791
0.4622437607
1.062975522
1.854650897
0.3793997084
0.8553845665
2.076251917
0.2549981387
0.5211192369
0.08669121622
0.1958005393
-0.7701187187
-0.06642161413
-0.1718030242
-0.6796205618
-0.2129058696
-0.2595851343
-0.5230032166
-0.2880258837
-0.4554043753
-0.4023349882
-0.3662295503
-0.3453652228
-0.3068005996
-0.3343391822
-0.3245859393
-0.3570604316
-0.2992995915
-0.0768013029
-0.5049199149
-0.180746751
0.06567751535
-0.7150566809
-0.07315233139
0.3193702182
-0.9002762111
0.07754905182
0.5205577973
-0.9666475245
0.2122177981
0.7462286606
-0.8691418662
0.3732548163
0.9433375017
-0.6075103113
0.5162702787
1.109946322
-0.2360299896
0.6789172771
1.224468321
0.2073530053
0.8069976616
1.28413175
0.6642515883
0.9182453316
1.269607117
1.099720182
0.9450020386
1.205694124
1.488520901
0.8981038414
1.038641763
1.789401335
0.7360932125
0.835388929
1.992770077
0.4945678581
0.5080858591
0.1677764166
0.1907312045
-0.8326154707
-0.09891698945
-0.1675824339
-0.7296858526
-0.3144355929
-0.246068735
-0.5479234953
-0.4262909691
-0.4403062213
-0.4017365169
-0.5402893359
-0.3308962535
-0.2797928974
-0.4948412092
-0.3159425339
-0.3091668055
-0.4434432606
-0.07509617934
-0.4419327874
-0.269798605
0.0584109608
-0.6461445414
-0.1119900481
0.3042587361
-0.8277668983
0.1121398292
0.4958625463
-0.8925897014
0.309282476
0.715275273
-0.7937521769
0.5461550644
0.9039340735
-0.5331904785
0.7518331515
1.067084745
-0.1675203249
0.985849915
1.176268087
0.2568110089
1.165555166
1.233378479
0.6818353904
1.322554674
1.216685284
1.073748121
1.356569255
1.153636022
1.412103898
1.286404526
0.9906261124
1.665386522
1.050953956
0.7964221992
1.834302093
0.7061351128
0.4825735121
0.2383788794
0.1810643077
-0.9248363829
-0.1285278321
-0.1629316536
-0.8019797502
-0.40989347
-0.2256071326
-0.5841198649
-0.5547376776
-0.4191291448
-0.399433968
-0.7010632934
-0.3080418943
-0.2391947041
-0.6438510402
-0.3032507461
-0.2373600392
-0.5783207357
-0.07158725649
-0.3494508229
-0.3556833951
0.05231406859
-0.5436269311
-0.1515636921
0.2844525392
-0.7206136199
0.1408839187
0.4662426658
-0.7844370786
0.3961819595
0.6734112005
-0.6865413826
0.7021594659
0.8552149671
-0.4285098377
0.9619161689
1.007761912
-0.07205952465
1.257096355
1.111256285
0.3253899721
1.475725446
1.160543084
0.7044609592
1.667332309
1.141422215
1.034012147
1.700233702
1.07827526
1.301498618
1.609242788
0.9216514942
1.487739557
1.308175995
0.7400889321
1.60874147
0.8788566731
0.4464421089
0.2949377844
0.1670483712
-1.046676816
-0.1534774033
-0.1547429564
-0.8958928864
-0.4937988633
-0.2013086043
-0.6325851438
-0.66517047
-0.3887785093
-0.3973351272
-0.838797454
-0.2783774346
-0.1889833778
-0.7711099452
-0.2839091229
-0.1468058422
-0.6948410481
-0.06513848545
-0.2319472633
-0.4277834351
0.04327099633
-0.4106576056
-0.1885695514
0.2597613459
-0.5803381744
0.1681035882
0.424377955
-0.6445866158
0.4734012576
0.6211216144
-0.5465436418
0.8423371366
0.7858794593
-0.2925470437
1.143831783
0.9328631343
0.04783052567
1.48901246
1.025605165
0.4093537533
1.729314365
1.068890275
0.730022828
1.942167596
1.044543344
0.9808496652
1.964246264
0.9825930285
1.160831832
1.854210072
0.8334657064
1.265294958
1.497704433
0.6690605436
1.327976572
1.006131887
0.4004373665
0.3352460651
0.1497597551
-1.192740117
-0.1698248741
-0.1463568764
-1.006499408
-0.5590444254
-0.1716610214
-0.6891846517
-0.7445881763
-0.3539547043
-0.3934339559
-0.939847577
-0.2413922268
-0.1284411053
-0.8616284918
-0.2596889947
-0.03669488376
-0.7786604242
-0.05524753792
-0.09124273549
-0.4750659354
0.03841354231
-0.2494484197
-0.2160865433
0.2336616386
-0.4104501123
0.1961707562
0.385468891
-0.4770314517
0.5391750682
0.5646011139
-0.382378511
0.9615933407
0.7195458856
-0.1363386862
1.291763357
0.84972938
0.1821277922
1.680898591
0.9328075909
0.4989303948
1.92393445
0.9641746269
0.7523380325
2.140838961
0.9342731711
0.9135457859
2.14367605
0.8720195799
0.995390004
2.014995241
0.7319083657
1.008359659
1.615988078
0.5867634858
1.006316035
1.085831359
0.3475440819
0.3579699051
0.1300379062
-1.359208148
-0.1750258374
-0.1343897104
-1.130891697
-0.5962490017
-0.1407012647
-0.7536537649
-0.7805384501
-0.3117592376
-0.3898754139
-0.9885107005
-0.1999714007
-0.06194268427
-0.8994225411
-0.2283758366
0.08181356392
-0.8119265309
-0.04098154211
0.06540519401
-0.4853051966
0.03423368146
-0.06677980224
-0.2188202448
0.2100410193
-0.2191727407
0.2360226479
0.3423565162
-0.286047867
0.5960827495
0.5056988645
-0.1958232987
1.065515913
0.6384844633
0.03814282168
1.414079154
0.7608323033
0.3230764995
1.81906125
0.8278117686
0.5898151576
2.055126628
0.8505738621
0.7687485233
2.264590393
0.8134795865
0.8342992917
2.239854757
0.7519776897
0.8116264692
2.093976625
0.6215341753
0.7296094318
1.66401753
0.4974100482
0.6605686965
1.117765828
0.29026488
0.3638130745
0.1093255591
-1.53341988
-0.1653648627
-0.1225031557
-1.258848106
-0.5978339028
-0.1069578171
-0.8186686152
-0.760903432
-0.2671219876
-0.3834065879
-0.9726756518
-0.1539618099
0.009567105291
-0.8694177421
-0.1914295274
0.2082906506
-0.7853991976
-0.02168042064
0.234977279
-0.448616826
0.03726926864
0.1270277072
-0.1826737655
0.1931352771
-0.01594099127
0.284976049
0.3094845346
-0.07591479669
0.650763975
0.4510123421
0.001756381113
1.144130843
0.5742358966
0.2095180804
1.496349242
0.6726416658
0.4589967883
1.899100084
0.7256168179
0.6725296412
2.117616318
0.7335103874
0.77374825
2.31014616
0.6893037531
0.7426451825
2.251926174
0.6272686664
0.6159683542
2.091828168
0.5068543421
0.4411418418
1.642352193
0.4043810022
0.3080784256
1.103779004
0.2306237599
0.3531963566
0.08846643198
-1.707137174
-0.137801477
-0.1083205351
-1.384336756
-0.5530062549
-0.07467899262
-0.8809779876
-0.6729019901
-0.2196830215
-0.3750556684
-0.8774196821
-0.1076896114
0.08771187478
-0.7540233206
-0.149585628
0.3373271023
-0.6878675026
0.001866412293
0.4050342098
-0.3569787377
0.044059131
0.3235008309
-0.1086363081
0.1820397736
0.1980776268
0.3486671515
0.277996203
0.1362858208
0.7042691111
0.4032479497
0.1998845121
1.195058565
0.5043359624
0.3823769967
1.533985451
0.5868191508
0.5899301052
1.919625464
0.6216999595
0.7456334477
2.106220362
0.6170192004
0.7665787074
2.273327316
0.5649738867
0.6408326349
2.177782765
0.5027191221
0.4137932143
2.009169453
0.3934699104
0.1530146184
1.550206164
0.31145978
-0.04039117613
1.045958838
0.172126272
0.3264434855
0.06742092973
-1.862098003
-0.08973111324
-0.09455519638
-1.493361888
-0.4553572283
-0.04370093553
-0.9321089714
-0.50652698
-0.1729834079
-0.3606448327
-0.6928107594
-0.06142504166
0.1627847029
-0.5469616405
-0.1047507922
0.4615321327
-0.5095882125
0.03023098959
0.5675993676
-0.2033503812
0.05848905234
0.5150184311
0.007919120834
0.1769140948
0.4047913203
0.429057992
0.2558061481
0.3422491872
0.7480575781
0.3611975548
0.3899704987
1.212047059
0.4445542102
0.5422462133
1.518382017
0.5044493875
0.7058387548
1.872129678
0.5226038917
0.8012424429
2.013836689
0.5029339886
0.7441143757
2.146121216
0.4427190976
0.5300846493
2.01269792
0.380676808
0.2136137788
1.844571575
0.2818887129
-0.1229817362
1.389255705
0.2210934623
-0.3694100185
0.9437020165
0.1137558079
0.2822212652
0.04713345246
-1.986089832
-0.02099400427
-0.0815554913
-1.578774659
-0.3035954641
-0.01828598873
-0.9693789898
-0.2620554889
-0.1313833238
-0.3431578836
-0.4166641709
-0.02117380676
0.2293246437
-0.2500197578
-0.06373780573
0.5687320994
-0.2512876244
0.05787133422
0.7152696388
0.01994534017
0.07318945692
0.6918371935
0.1589148907
0.17461484
0.5973729364
0.5209648017
0.2340289731
0.5359157533
0.7767367736
0.3208684887
0.5679147311
1.187666286
0.3844221245
0.687516822
1.440315053
0.4259017531
0.8057077603
1.746224138
0.4275729022
0.8391467044
1.830272403
0.3954745252
0.7080553852
1.920299732
0.3296065494
0.4139317505
1.751441942
0.2669291787
0.01727755859
1.593716561
0.1808115917
-0.3797530969
1.160132677
0.1368074971
-0.6680148939
0.7959455434
0.06121999588
0.2229577229
0.02679989544
-2.057426465
0.0627812995
-0.06876082454
-1.624955553
-0.1047230713
0.000696173173
-0.9820172265
0.05354523086
-0.09475536611
-0.319122751
-0.05745758005
0.01070170878
0.2853324928
0.1265735201
-0.02524805558
0.6574944131
0.07651297264
0.08260179552
0.830916423
0.2840473866
0.08963495717
0.8336668497
0.3364193282
0.1722898986
0.7573248468
0.6169332637
0.2151927159
0.6995846346
0.783827198
0.2815695971
0.7166986861
1.119238206
0.3258971407
0.8036225548
1.294914471
0.3479408713
0.8772184311
1.534496296
0.334399744
0.851313625
1.548531202
0.2922047566
0.6574065592
1.59349936
0.2210051329
0.2993948335
1.395360269
0.1613405817
-0.1518441467
1.254698914
0.08413540342
-0.5980017907
0.8700745886
0.06032320935
-0.9150101028
0.6076701735
0.0101637621
0.1499611517
0.00952419495
-2.067989073
0.155640478
-0.05915073938
-1.6227339
0.1231942374
0.01184258253
-0.9694838135
0.4045728748
-0.06924111862
-0.2908408027
0.3417772558
0.03252410325
0.3234400851
0.5426541214
0.0005672258106
0.7124913603
0.4370215057
0.09936152854
0.9075123816
0.5777045508
0.09771944444
0.9347476665
0.5287399354
0.1668671025
0.8785945579
0.710076841
0.1929428162
0.8281903194
0.7667999411
0.2423571621
0.8337550369
1.005093611
0.2680403048
0.8896844382
1.081524521
0.2744823032
0.9202972774
1.236667488
0.2499124396
0.8414201977
1.171047295
0.2006084278
0.5957755988
1.171048463
0.1306938265
0.189859121
0.9512156107
0.07155304187
-0.2997942209
0.8343884065
0.007052810796
-0.7747228312
0.5198247166
-0.004618425511
-1.107438583
0.381594497
-0.02891911871
0.06485234358
-0.007183023078
-2.00015447
0.2511746613
-0.04917811807
-1.562292663
0.360913335
0.01647605984
-0.9248404325
0.7713781696
-0.04761575209
-0.2598912088
0.7603163605
0.04504123605
0.3398975223
0.9772583395
0.02336298333
0.7290328948
0.8153273821
0.1082914691
0.9341184578
0.8855186534
0.1035021902
0.9812090241
0.7259217891
0.1559950234
0.943362145
0.7962857129
0.169929352
0.9024825355
0.7266887414
0.2007052601
0.8991625243
0.8510411797
0.2097664145
0.9282194681
0.8090995753
0.2019848964
0.922172473
0.8670010162
0.1676595601
0.8038023053
0.713487068
0.1168045659
0.5257180734
0.6676023682
0.04630420532
0.09290227357
0.4284633884
-0.005363900987
-0.4085169287
0.3485745869
-0.05984811834
-0.8878646269
0.1195416928
-0.05702474907
-1.219030521
0.1265758946
-0.06410267892
-0.03092998371
-0.01859077783
-1.859456027
0.3446546746
-0.04321528861
-1.448173666
0.5948501094
0.01742951344
-0.8508499222
1.133954477
-0.037414499
-0.2271733838
1.17362232
0.04893680016
0.3361763293
1.407033633
0.03020071876
0.7081971757
1.189749925
0.1077827847
0.9129392947
1.188097834
0.09697318614
0.9727440247
0.9134323112
0.1405424225
0.9530639258
0.8681170313
0.14168833
0.9238280965
0.6639252866
0.1607620729
0.9160479066
0.6630585374
0.1562126764
0.9256824292
0.4903607895
0.1395361012
0.8886652959
0.4439421593
0.1024482696
0.7451421864
0.199666558
0.05204158104
0.4512062041
0.1036188772
-0.009100400859
0.009617310442
-0.155055089
-0.05724189504
-0.4792720137
-0.1841931249
-0.09892046025
-0.9408754093
-0.3105673233
-0.09191301541
-1.257760457
-0.1499594647
-0.08142028409
-0.1319640984
-0.02809808221
-1.639190483
0.4295627954
-0.03402483618
-1.273792329
0.812933125
0.01426753989
-0.7441058016
1.469230334
-0.02472881784
-0.1900039762
1.55958289
0.04652031225
0.3105212242
1.806152107
0.03867364769
0.6460859406
1.539689942
0.09996134418
0.8362412151
1.466964371
0.09245227931
0.9000458388
1.081768863
0.1197493009
0.8936879274
0.9235409979
0.1156651465
0.8740557629
0.585857791
0.1198664697
0.8642965608
0.4586884075
0.1066642155
0.8609343611
0.1540950665
0.08298718691
0.8072370392
0.002822899993
0.04286974766
0.6556584742
-0.3340301097
-0.002311772278
0.3679346285
-0.4814770308
-0.05760376974
-0.04433339685
-0.7503453699
-0.0935251846
-0.4927259127
-0.71920763
-0.1282748464
-0.9092455529
-0.7414864084
-0.1101495087
-1.194202999
-0.4258150319
-0.09390648367
-0.2344880152
-0.02997807786
-1.354919993
0.500995319
-0.02946515199
-1.051578975
0.9940481787
0.01122611631
-0.6116098054
1.749215109
-0.02289332119
-0.1513365242
1.881012007
0.03909455443
0.2658355682
2.14024039
0.03020329072
0.5477711249
1.831681977
0.08444261627
0.7123332819
1.699173507
0.07229973661
0.7731023615
1.216490977
0.09607997827
0.7778462354
0.9590284099
0.08493438553
0.7681228736
0.501416486
0.08574520087
0.7593748657
0.2576842915
0.0673236443
0.7476713808
-0.1665439269
0.04379073782
0.6878381017
-0.4179190125
0.009007047976
0.5442692797
-0.8353861875
-0.02800179149
0.2852006875
-1.030439953
-0.06983637042
-0.07425020159
-1.302975322
-0.1012113441
-0.4602113401
-1.217143093
-0.1222674242
-0.8122764103
-1.139234394
-0.1081477764
-1.052864642
-0.6817798048
-0.08505548528
-0.3280953377
-0.0304087008
-1.006521838
0.5523037917
-0.01916606002
-0.7802392965
1.128554503
0.006183244864
-0.4525744738
1.95398301
-0.01245884766
-0.1089816124
2.118310129
0.02898649091
0.2018321131
2.383672795
0.02984899766
0.4140439321
2.045263528
0.06415719834
0.5394060745
1.865922499
0.05979806215
0.5898415498
1.313373539
0.06934091164