/*--------------------------------*- C++ -*----------------------------------*\
| =========                 |                                                 |
| \\      /  F ield         | OpenFOAM: The Open Source CFD Toolbox           |
|  \\    /   O peration     | Version:  5.x                                   |
|   \\  /    A nd           | Web:      www.OpenFOAM.org                      |
|    \\/     M anipulation  |                                                 |
\*---------------------------------------------------------------------------*/
FoamFile
{
    version     2.0;
    format      ascii;
    class       volScalarField;
    location    "2";
    object      T;
}
// * * * * * * * * * * * * * * * * * * * * * * * * * * * * * * * * * * * * * //

dimensions      [0 0 0 1 0 0 0];

internalField   nonuniform List<scalar> 
30538
(
274.3340416
273.0137823
273.0102838
273.0112592
273.0122946
273.0138907
273.0171878
273.02107
273.0243209
273.0251926
273.0233624
273.0190457
273.0134856
273.0081196
273.0036226
273.0001115
272.9978339
272.9971156
272.9955271
272.5501884
274.3256111
273.0114179
273.0075903
273.0082617
273.0091222
273.0105555
273.0136944
273.0174532
273.0207408
273.0218701
273.0205459
273.0169488
273.0121638
273.0074697
273.0035118
273.0002617
272.9979827
272.9970001
272.994907
272.5512733
274.3097244
273.0096728
273.0052321
273.0053311
273.005851
273.0069567
273.0097906
273.0133274
273.0167065
273.0182806
273.0179444
273.0156549
273.0123307
273.0088941
273.0058754
273.0031038
273.0008189
272.9993601
272.99656
272.5546017
274.2867778
273.0073457
273.0020637
273.0013706
273.001391
273.0020314
273.0044579
273.0077171
273.0111398
273.0133669
273.0143517
273.0138273
273.0124299
273.0106733
273.0088452
273.0066561
273.0043472
273.00228
272.9986111
272.5589136
274.2537063
273.0046773
272.9984358
272.9968202
272.9962113
272.996318
272.9983006
273.0012221
273.0046881
273.0076386
273.0101306
273.0115853
273.0123602
273.012456
273.0118898
273.0102786
273.0078726
273.0051783
273.0006647
272.5636161
274.2160324
273.0019601
272.9947533
272.9921996
272.9909248
272.9904808
272.9920484
272.9944864
272.9980577
273.0017153
273.0057018
273.0091102
273.012053
273.0138502
273.014467
273.0133163
273.0107784
273.0075001
273.0023206
272.568338
274.1677657
272.999447
272.991451
272.9880621
272.9861384
272.9851685
272.9863833
272.9883188
272.9920281
272.9962485
273.001532
273.0066353
273.0114039
273.0145713
273.0160641
273.0152332
273.0125277
273.0088079
273.0032954
272.5740829
274.1178345
272.9974015
272.9888706
272.9848517
272.9823824
272.9810026
272.9818616
272.983532
272.9872277
272.991854
272.9980879
273.0044183
273.0102834
273.0143974
273.0163951
273.0156662
273.0127699
273.0088341
273.0033671
272.5799158
274.0553975
272.9959564
272.9872792
272.9828778
272.9800701
272.9783715
272.9789681
272.9805566
272.9841767
272.9890376
272.9956919
273.0025727
273.0088693
273.0133123
273.015358
273.0144829
273.0114019
273.0074902
273.0025264
272.5879133
273.995711
272.9953133
272.986869
272.9823639
272.9794127
272.9775579
272.9779684
272.9795304
272.9830989
272.9879881
272.9945636
273.0013497
273.0073419
273.0114655
273.013079
273.0118157
273.0085765
273.0049026
273.0009015
272.5966479
273.9212425
272.9954029
272.9876445
272.9833188
272.9803923
272.9785571
272.9789724
272.9806697
272.9840774
272.9887153
272.9947748
273.0008743
273.0059364
273.0091249
273.0098481
273.0080192
273.0046987
273.0014296
272.9986898
272.6115889
273.851624
272.9961343
272.9894058
272.985472
272.9828325
272.9811787
272.9817264
272.9834964
272.9867537
272.9909883
272.9962223
273.0011825
273.0048531
273.0066251
273.0061462
273.0036471
273.0002566
272.9976433
272.9962727
272.6276137
273.7644382
272.9972484
272.9917774
272.9884148
272.9861013
272.9847659
272.9854831
272.9874562
272.9906044
272.9943672
272.998614
273.0021613
273.0041738
273.0042748
273.0025042
272.9993518
272.9958963
272.9940108
272.9940219
272.6539541
273.6841003
272.9985151
272.9942786
272.9915449
272.9896269
272.9886767
272.9896634
272.9918927
272.9949532
272.9982427
273.0014529
273.0035202
273.0038672
273.0023368
272.9994134
272.9956575
272.9921991
272.9910028
272.9922577
272.6795973
273.585067
272.9996745
272.9966509
272.9945255
272.9930129
272.9924293
272.9936794
272.9961088
272.9990673
273.0018849
273.0041308
273.0048657
273.0038051
273.000966
272.9971759
272.9929426
272.9896306
272.9889868
272.9912212
272.719904
273.4947635
273.000665
272.9986772
272.9970873
272.9959459
272.995647
272.9970492
272.9995309
273.0023071
273.0046556
273.0060967
273.005836
273.0038012
273.0001873
272.9959117
272.9915437
272.9886079
272.9883969
272.9911398
272.7563382
273.3856007
273.0012529
273.0001185
272.9990009
272.9982108
272.9981134
272.9994892
273.0017782
273.0042261
273.0061047
273.0069586
273.0061202
273.0036685
272.9998638
272.9956698
272.991636
272.9891618
272.9892058
272.9920043
272.8115494
273.2861368
273.0014027
273.000856
273.0001309
272.9996179
272.999632
273.0007858
273.0026397
273.0045861
273.0059838
273.0064566
273.0054699
273.0031561
272.9998246
272.9962767
272.9930042
272.9911254
272.9912864
272.9937051
272.8571911
273.1686336
273.0016755
273.0020791
273.0025975
273.0027208
273.0033218
273.0037705
273.0047987
273.0051821
273.0056205
273.0051856
273.004433
273.0022398
272.9998832
272.9967322
272.9949891
272.9933517
272.994266
272.9958452
272.9219033
273.1002021
273.4280978
273.4575466
273.7814711
273.7297502
273.9410371
273.7971243
273.8820669
273.6489523
273.6404124
273.3378122
273.3010417
272.9697867
272.9918522
272.6823756
272.8297441
272.5825353
272.8756424
272.6983174
273.0562329
274.5546962
273.0159798
273.0124321
273.013695
273.0144362
273.0151714
273.0170518
273.0189839
273.0201832
273.0191996
273.0161863
273.0115119
273.0064028
273.0019645
272.9987041
272.996565
272.9955762
272.9958761
272.993686
272.4198117
274.5466733
273.0136265
273.0097619
273.0107029
273.0112515
273.0118005
273.0135044
273.0153428
273.0166193
273.0159425
273.0134681
273.0094919
273.0051325
273.0013279
272.9985434
272.9966343
272.9956228
272.9956651
272.9930757
272.4193092
274.5313324
273.0118963
273.0073967
273.0077344
273.0079018
273.0080897
273.0094964
273.0111771
273.0126092
273.0125141
273.0110479
273.008369
273.0053926
273.0027829
273.0008532
272.9993487
272.9982981
272.997871
272.9946148
272.4199666
274.5087296
273.0095752
273.0041939
273.003706
273.0033333
273.0030441
273.0040687
273.005545
273.0071903
273.0078644
273.0077633
273.0068251
273.0056965
273.0046561
273.0038239
273.0028097
273.0016803
273.0006439
272.9965615
272.421098
274.4761252
273.0068929
273.0005093
272.999069
272.9980554
272.997231
272.9978493
272.9991162
273.0010089
273.0025414
273.003994
273.0050012
273.0059308
273.0066122
273.0069448
273.0064145
273.005151
273.0034601
272.9985636
272.4224663
274.4367898
273.0041272
272.9967555
272.9943566
272.9926722
272.9913143
272.9915686
272.9926143
272.9947408
272.997117
273.0001242
273.0030284
273.006032
273.0082935
273.0096661
273.0095233
273.0080863
273.0057828
273.0002508
272.4249826
274.3867987
273.0015206
272.993335
272.9900842
272.9877843
272.9859672
272.9859336
272.9867442
272.9891701
272.9921948
272.9966003
273.0011581
273.0058192
273.0093338
273.0114746
273.0115617
273.0099274
273.0071617
273.0012839
272.4288813
274.3314156
272.9993265
272.9906029
272.986709
272.983926
272.9817589
272.981527
272.9822781
272.9848054
272.9883799
272.9938075
272.9995091
273.0051778
273.0095026
273.0120343
273.0121329
273.0102892
273.0072929
273.001498
272.4360014
274.2629439
272.9977036
272.9888365
272.9845486
272.9814778
272.97912
272.9787755
272.9795683
272.9821909
272.9861153
272.9919602
272.9981949
273.0042019
273.00874
273.0112127
273.0110993
273.0090546
273.0060814
273.0008123
272.4455917
274.192266
272.9968336
272.9882243
272.9838307
272.9806853
272.9783039
272.9779213
272.9787882
272.9814667
272.9854783
272.9912708
272.9973834
273.0030244
273.007159
273.0091092
273.0085699
273.0063685
273.003645
272.9993584
272.4606704
274.1068757
272.9966786
272.988768
272.9845609
272.981494
272.9792657
272.9790398
272.9800677
272.9826562
272.9864519
272.9917618
272.9971712
273.0018604
273.0050072
273.0060233
273.0049091
273.0026336
273.0003068
272.9973288
272.4816408
274.0209116
272.9971622
272.9903408
272.9865228
272.9837938
272.9818421
272.9817974
272.982935
272.9853973
272.9888048
272.993311
272.9975934
273.0008994
273.0026149
273.0024372
273.0006849
272.9983522
272.9966699
272.9951301
272.508942
273.9185125
272.9980568
272.9925181
272.989302
272.9869075
272.9853298
272.9855231
272.9868369
272.9891807
272.9921174
272.9956488
272.9985617
273.0002407
273.0003078
272.9988827
272.9965311
272.9941645
272.9931831
272.9930921
272.5454782
273.8183539
272.9991024
272.9948585
272.9922825
272.9903207
272.9891579
272.9896326
272.9911497
272.9933767
272.9958322
272.9983459
272.9998395
272.9999132
272.9984119
272.9958909
272.9930033
272.9906523
272.9903229
272.9915488
272.585506
273.7010726
273.0000644
272.9970698
272.995113
272.9935855
272.9928131
272.9935542
272.9952262
272.997321
272.9993011
273.0008769
273.0011322
272.9998865
272.9971526
272.9938249
272.9904841
272.9882559
272.9884057
272.9906788
272.6384335
273.5891866
273.0008384
272.998912
272.9974931
272.9963575
272.9959053
272.9968179
272.9985403
273.0004519
273.0019913
273.0028222
273.0021933
273.0000565
272.9966159
272.9928368
272.9893569
272.987407
272.9878936
272.9907209
272.6904894
273.4600566
273.0012392
273.0001767
272.9992131
272.9984326
272.9982197
272.9991546
273.0007478
273.0024023
273.0035503
273.0038891
273.0027857
273.0003115
272.9967126
272.9930156
272.9897588
272.9881192
272.9887353
272.991643
272.7589371
273.3384466
273.0012341
273.0007518
273.0001552
272.9996589
272.9996005
273.0004016
273.0016905
273.0029882
273.0038176
273.0038902
273.0027054
273.0004097
272.9972856
272.9941689
272.9915039
272.9902653
272.9908461
272.9933731
272.8199624
273.2003931
273.0014322
273.0021102
273.0027488
273.0031646
273.0036062
273.0039307
273.0043367
273.0042297
273.0041459
273.0033925
273.0024447
273.0001007
272.9978623
272.9946488
272.9934851
272.9920798
272.9936275
272.9952582
272.8986139
273.1572855
273.4662492
273.5872903
273.8896509
273.9150944
274.0823386
273.9863163
274.0065562
273.7797733
273.7088134
273.3762177
273.303584
272.9176451
272.9451931
272.5672109
272.7738843
272.4543105
272.8538329
272.6015118
273.0837564
274.8490874
273.0212966
273.0182446
273.0209243
273.0220963
273.0217537
273.0214023
273.0194804
273.0166899
273.0121368
273.0065551
273.000574
272.9954222
272.9918937
272.9903424
272.9903383
272.9915768
272.99376
272.9918117
272.1325065
274.8412753
273.0188768
273.0155459
273.0178414
273.0187604
273.018211
273.0177336
273.0157897
273.0132039
273.0090325
273.0040122
272.9987209
272.9942737
272.9913323
272.9901826
272.9903393
272.9915061
272.9934381
272.9910486
272.1304767
274.8274783
273.0170725
273.0131155
273.0147249
273.0151583
273.0142265
273.0135545
273.0116003
273.0093977
273.0059165
273.0019647
272.9979491
272.9948265
272.9929921
272.9925555
272.9930062
272.9940569
272.9955025
272.9924849
272.126625
274.8050335
273.0146335
273.009787
273.0104738
273.0102616
273.008851
273.0079289
273.0060296
273.004327
273.0017794
272.9992628
272.9969517
272.9955862
272.9952015
272.9956952
272.9965108
272.9973928
272.9981849
272.994339
272.1243599
274.7727246
273.0118031
273.005921
273.0055661
273.0046193
273.0027258
273.0015074
272.9998089
272.9986704
272.9971603
272.9962981
272.9958922
272.9964459
272.9976245
272.999124
273.0002918
273.000954
273.0010202
272.9963159
272.1206014
274.7319452
273.0088431
273.0019354
273.0005405
272.9988634
272.9965541
272.9950768
272.9936421
272.9930593
272.9926173
272.9933732
272.9948108
272.9972819
272.9998776
273.0022606
273.0036944
273.0041053
273.0034931
272.9980896
272.1207876
274.6775542
273.0060021
272.9982411
272.9959279
272.9936315
272.9910052
272.9893926
272.9881952
272.9881493
272.9886896
272.9909291
272.9939266
272.9978675
273.0015482
273.0045494
273.006098
273.0062562
273.0051294
272.9993267
272.1244561
274.6178716
273.0035495
272.9952088
272.9921931
272.9894597
272.9866516
272.9850175
272.9840707
272.9844406
272.9858482
272.9890905
272.9932158
272.9980609
273.0023548
273.0056024
273.007077
273.0069997
273.0055941
272.9997968
272.1330076
274.5380235
273.0016082
272.9931285
272.9896863
272.986738
272.983896
272.9823325
272.9816471
272.9824002
272.9843217
272.9881169
272.9927387
272.9978296
273.002191
273.0052608
273.0064622
273.0061755
273.0047509
272.9994335
272.1517956
274.4597353
273.0004135
272.9921842
272.9886331
272.9856783
272.9829633
272.9815334
272.9810928
272.9820721
272.9841933
272.9880374
272.9925437
272.9972301
273.0010868
273.0035537
273.0043069
273.0038825
273.0026867
272.9983108
272.1752819
274.3530474
272.9998549
272.9923612
272.9890027
272.9861947
272.9837622
272.9826592
272.9824143
272.9833912
272.9853755
272.9888286
272.9926788
272.9964157
272.9992449
273.0007607
273.0009446
273.000435
272.9996909
272.9966192
272.2164757
274.2559191
272.9999851
272.9936328
272.9906203
272.9882214
272.9861299
272.9852092
272.9851118
272.9859873
272.9876295
272.990365
272.9931684
272.9955623
272.9969894
272.9973479
272.996922
272.9963899
272.9962601
272.9946863
272.2581432
274.1233712
273.0004998
272.9954637
272.9930283
272.990996
272.9893025
272.9886344
272.9886556
272.9893822
272.9905644
272.9924193
272.9939658
272.9948372
272.9947133
272.9938757
272.9928765
272.9923564
272.9928925
272.9928561
272.3248615
274.0087731
273.0012417
272.9974828
272.9956605
272.9940513
272.9927621
272.9923263
272.9924571
272.9930116
272.9937262
272.9946777
272.994971
272.9943813
272.9928075
272.9909298
272.9894656
272.9889789
272.9900522
272.9914103
272.3837374
273.8544085
273.0018185
272.9993423
272.9980988
272.9969072
272.9959814
272.9957652
272.9959635
272.9963649
272.996661
272.9968236
272.9960488
272.9942981
272.9916245
272.9889846
272.987096
272.9866615
272.988169
272.9906088
272.4736834
273.7258147
273.002232
273.0007715
273.0000033
272.9991765
272.9985571
272.9985151
272.998764
272.9990377
272.9990252
272.9985988
272.9971254
272.9946565
272.9913442
272.9883347
272.9863051
272.9859709
272.9876554
272.990697
272.5468324
273.5563319
273.0022266
273.0016057
273.0011925
273.0006706
273.000291
273.0003539
273.0005998
273.000781
273.0005844
272.9998729
272.998147
272.9954464
272.9920602
272.9891089
272.9871462
272.9868804
272.988498
272.9916558
272.6545212
273.4175796
273.0018877
273.0017465
273.0015726
273.0012689
273.0010708
273.0011694
273.0013821
273.0015075
273.0012598
273.000532
272.9989258
272.9965175
272.9936278
272.9911548
272.9895053
272.9893214
272.9906579
272.9934095
272.7371197
273.2382604
273.0021
273.0028293
273.0045686
273.0045573
273.005617
273.0046954
273.0046644
273.0032652
273.0024997
273.0010875
272.9997934
272.9973802
272.9950498
272.9924271
272.9915859
272.9912498
272.9931205
272.995275
272.8559808
273.1072035
273.656115
273.6287911
274.1706843
274.0246169
274.3762801
274.0988039
274.2142055
273.8355916
273.7788
273.3482202
273.2272071
272.8088581
272.7521747
272.4148987
272.5311036
272.3273509
272.6559249
272.5637243
272.9738039
275.5693663
273.0310529
273.0272755
273.0328927
273.0352251
273.0347218
273.0312447
273.0246689
273.0168018
273.0070812
272.9976084
272.9889087
272.9823945
272.9786836
272.9782911
272.9804287
272.9843837
272.9891907
272.9877903
271.6201836
275.5654946
273.0286113
273.0244319
273.0296012
273.0316513
273.0309696
273.0274465
273.0210089
273.0134888
273.0042484
272.9954034
272.987399
272.9815677
272.9784257
272.9783785
272.9806155
272.9844377
272.9889512
272.9868714
271.6108121
275.5592253
273.0267301
273.0217445
273.0260959
273.027612
273.0266116
273.0230644
273.0169389
273.0100509
273.0016479
272.993988
272.9872663
272.9827266
272.9806546
272.9812199
272.9836379
272.9872226
272.9911739
272.9883763
271.5938896
275.5456444
273.0241037
273.0180822
273.0213554
273.0221201
273.0207408
273.0171874
273.0115531
273.0054733
272.998246
272.9921405
272.9871576
272.9843072
272.9836318
272.9850051
272.9876643
272.9909268
272.9941178
272.9903983
271.5741932
275.5225394
273.0209758
273.0138139
273.0158664
273.0158388
273.0140577
273.0105724
273.0055717
273.0004231
272.9945937
272.9902544
272.9871434
272.9861683
272.9869583
272.9892017
272.9921009
272.9949902
272.9973434
272.992638
271.5526535
275.4851919
273.0176425
273.0093837
273.0102296
273.0094448
273.007312
273.003955
272.9996761
272.9954285
272.9911911
272.9884846
272.9872791
272.9880313
272.9901595
272.9931792
272.9962556
272.9987668
273.0003326
272.9947641
271.538318
275.4302311
273.014386
273.0052409
273.0050224
273.0036078
273.0012256
272.9980851
272.994489
272.9912187
272.9883308
272.9872033
272.9875163
272.9896723
272.9927813
272.9963275
272.9994522
273.0016265
273.0025528
272.996402
271.531694
275.3571319
273.011446
273.001793
273.0007456
272.9989038
272.9964035
272.9935353
272.9905562
272.9880975
272.9863488
272.9863919
272.9878266
272.9908232
272.9944616
272.9981775
273.0011928
273.0030863
273.0036179
272.9973654
271.5417416
275.2599925
273.0089737
272.9993227
272.9977443
272.9957165
272.9932466
272.9906814
272.9882333
272.986464
272.985486
272.986205
272.9881848
272.9914197
272.9950349
272.998525
273.0012613
273.0029449
273.0033742
272.997543
271.5677248
275.146084
273.0071532
272.9980118
272.9962407
272.9942447
272.9919586
272.9896855
272.9876256
272.9862989
272.9857097
272.9866112
272.9885485
272.9914023
272.994458
272.9973389
272.9996432
273.0012257
273.0018162
272.9969779
271.6164993
275.0022012
273.0059587
272.9978302
272.9961814
272.9943864
272.9924006
272.9904513
272.988696
272.9875017
272.9869023
272.987543
272.9889146
272.990881
272.9929059
272.9948726
272.9966397
272.9981876
272.9992169
272.9957507
271.684877
274.8483088
273.0053982
272.9986999
272.9973654
272.995963
272.994308
272.9925527
272.9909088
272.9896722
272.9888238
272.9888777
272.9893237
272.9900492
272.9907415
272.9916215
272.992802
272.9943661
272.9959859
272.9941841
271.7727926
274.6622649
273.0052516
273.0001033
272.9992775
272.9982429
272.9969156
272.9953557
272.99376
272.9923731
272.9911257
272.9904427
272.9897966
272.9891509
272.988417
272.9881697
272.988766
272.9903683
272.9925912
272.9924818
271.8827447
274.4766648
273.0052799
273.0016714
273.0013736
273.000716
272.9996985
272.998295
272.9967154
272.9951391
272.9934823
272.9920554
272.9903747
272.9884641
272.9864531
272.9851986
272.9852348
272.9868875
272.9896159
272.9910945
272.0019472
274.2574514
273.005139
273.0030269
273.0031917
273.002882
273.002116
273.0008513
272.9992908
272.9975786
272.9956153
272.9936106
272.9911038
272.9882306
272.9852159
272.9832194
272.9829305
272.9845225
272.9876167
272.9902396
272.1448606
274.0524374
273.0048023
273.0038567
273.0043534
273.0043015
273.0037448
273.0026416
273.0011799
272.9994534
272.9973793
272.995072
272.9921302
272.9887477
272.9852676
272.9829341
272.9824169
272.9838836
272.9869735
272.9903006
272.2819512
273.8128818
273.0040729
273.0040328
273.0046825
273.004784
273.0043926
273.0034833
273.0021894
273.0006087
272.9986558
272.9963727
272.9934698
272.9900807
272.986653
272.9843481
272.983745
272.9849889
272.9877924
272.9912614
272.4473666
273.5987831
273.0030805
273.0034836
273.0041155
273.0042707
273.0040239
273.0033479
273.0023335
273.0010531
272.9994551
272.9975283
272.9950938
272.9922253
272.9893644
272.9874542
272.9868823
272.9878504
272.9900694
272.9931393
272.5907299
273.348008
273.0030365
273.0052065
273.0077429
273.0092191
273.0098019
273.0087926
273.0068399
273.0041163
273.0017154
272.9992219
272.9972439
272.9941141
272.9917574
272.98914
272.9892652
272.989567
272.9924636
272.9949611
272.7688423
273.2941195
273.7990155
274.0631093
274.553743
274.6615543
274.8751105
274.7571123
274.6513215
274.2908439
274.0142562
273.4786548
273.2192577
272.6128467
272.5596065
271.9843134
272.2943922
271.8471914
272.5416664
272.2188601
273.0559471
276.3005656
273.0427869
273.0381151
273.0480495
273.0521362
273.0519163
273.045689
273.0343438
273.0208737
273.0051586
272.9906055
272.9777607
272.9683772
272.9629546
272.9626694
272.9665346
272.9734309
272.9816372
272.9819888
270.8595121
276.301012
273.0402134
273.0350713
273.0444453
273.0482648
273.0479317
273.0418215
273.0308026
273.0178182
273.0027197
272.988894
272.9767029
272.968002
272.9631582
272.9632109
272.9671563
272.9738376
272.9816569
272.9809523
270.842098
276.3075171
273.0381503
273.0320082
273.0403625
273.043702
273.0431538
273.0372853
273.0269256
273.0148431
273.0008297
272.9883619
272.9774059
272.9700155
272.9662494
272.9669176
272.9709672
272.977265
272.9843636
272.9827912
270.8012943
276.3041219
273.035192
273.0278503
273.0348036
273.0375305
273.0367346
273.0312413
273.0218264
273.0109251
272.9984435
272.9876076
272.9784475
272.9727014
272.9703972
272.9718328
272.9760271
272.9818098
272.9879639
272.9853092
270.7613366
276.2953274
273.0317432
273.0230061
273.0284036
273.0304426
273.0293912
273.0243628
273.016068
273.006603
272.9958687
272.9869991
272.9797362
272.9757955
272.9749903
272.9773012
272.9816413
272.9868639
272.9919479
272.9881228
270.7089667
276.2647458
273.0279523
273.0179741
273.0218441
273.0231898
273.0219359
273.0174461
273.0103745
273.0022972
272.9935021
272.9863591
272.9811327
272.9788773
272.9794661
272.9825478
272.9870128
272.9917052
272.9957439
272.9908607
270.6761909
276.2107317
273.0241871
273.0132724
273.0158326
273.0164934
273.0151411
273.0112263
273.0052891
272.998686
272.9915721
272.9861739
272.9825077
272.9817125
272.98332
272.9869516
272.991437
272.9956825
272.9988365
272.9931659
270.6553352
276.1338397
273.0207347
273.009343
273.0108871
273.0110341
273.0096751
273.0062791
273.0013153
272.9958773
272.9902149
272.986081
272.9837087
272.9838247
272.9860733
272.9899233
272.9943211
272.9982242
273.0007758
272.9948389
270.6625711
276.0132181
273.0176763
273.0064946
273.0073596
273.0072656
273.005963
273.003035
272.9988419
272.9943452
272.9897117
272.9864657
272.9847257
272.9852089
272.9875253
272.9912207
272.9953721
272.9990456
273.0013407
272.9957322
270.7079901
275.8796234
273.0153748
273.0048811
273.0054651
273.005342
273.0041904
273.0015829
272.9979418
272.9940106
272.989989
272.9870776
272.9854761
272.9857227
272.9875717
272.9907594
272.9945349
272.9980923
273.0004589
272.9958252
270.7775841
275.6820076
273.0134891
273.0044702
273.0051325
273.0051841
273.0041984
273.0018897
272.9984848
272.9947809
272.9909358
272.9879843
272.9860334
272.9855274
272.9864173
272.9887827
272.992078
272.9955939
272.9983135
272.9951219
270.9051006
275.4935326
273.0123924
273.0050292
273.0059581
273.0062995
273.0055402
273.0033168
273.0000249
272.996284
272.99236
272.9890344
272.9863724
272.9848137
272.9844964
272.9858301
272.9884688
272.9920087
272.9952353
272.9938431
271.0372823
275.2251262
273.0113411
273.0061286
273.0074937
273.0081143
273.0075278
273.0053508
273.0020253
272.998168
272.9940077
272.9901433
272.9866447
272.9839152
272.9822499
272.982448
272.984464
272.9879921
272.9918028
272.9921885
271.2400743
274.9949151
273.0106767
273.0072851
273.0090797
273.0099509
273.0095225
273.0073399
273.0039773
272.999987
272.9956091
272.9912477
272.9869549
272.9831519
272.9803067
272.979493
272.9809629
272.9844355
272.988684
272.990692
271.4179115
274.6743031
273.0095066
273.0081108
273.0102231
273.0112866
273.0109532
273.0088314
273.0054817
273.0014707
272.9970008
272.9923325
272.9875359
272.9829834
272.9793273
272.9777725
272.9787363
272.9819893
272.9864666
272.9896285
271.6736523
274.4197606
273.0083856
273.0082521
273.0104898
273.0116264
273.0113608
273.0093723
273.0062089
273.0023718
272.9980765
272.9934364
272.9885333
272.9837458
272.9797859
272.9778565
272.9784151
272.9813361
272.9856787
272.9895651
271.8741459
274.0729886
273.0066421
273.0076019
273.0097248
273.0107808
273.0105504
273.0088152
273.0060524
273.0026652
272.9988366
272.9946294
272.9901092
272.9856361
272.9818628
272.9799151
272.9801969
272.9826398
272.98651
272.9905018
272.1561757
273.8081421
273.0048651
273.0061161
273.0078735
273.0087233
273.0085542
273.0071884
273.0050423
273.0023635
272.9993359
272.9959535
272.9923037
272.9886988
272.9856077
272.9839722
272.9840919
272.98593
272.9889624
272.9924819
272.360994
273.4510967
273.0052899
273.0075935
273.0139613
273.0141052
273.0173171
273.0131019
273.0110514
273.0053745
273.0019071
272.998089
272.9951492
272.9913373
272.9883537
272.9862951
272.9864654
272.9879501
272.9911078
272.9944162
272.6531197
273.2039501
274.2568937
274.2108941
275.2658949
274.9982049
275.6380718
275.1077336
275.1899102
274.4818658
274.2053396
273.4440421
273.0479516
272.3534206
272.0770654
271.5753051
271.6492205
271.4773285
272.0202898
272.09312
272.780697
277.6974249
273.0618532
273.0487309
273.0631031
273.0692269
273.0696744
273.0616265
273.0462282
273.0273452
273.0057242
272.9855115
272.9677381
272.9545505
272.9467883
272.9458879
272.9509385
272.9602647
272.9719203
272.9758136
269.6371393
277.7142676
273.0592673
273.0454269
273.0591193
273.0650317
273.0654651
273.0576406
273.0427748
273.024511
273.0036339
272.9842442
272.9671222
272.9546295
272.9474139
272.9468809
272.9520254
272.9611022
272.9722399
272.9744941
269.5879009
277.7544385
273.057243
273.0418526
273.0543979
273.0599171
273.0603051
273.0530504
273.0391288
273.022078
273.0024772
272.9845851
272.9687587
272.9576012
272.951442
272.9515257
272.9567471
272.9653128
272.9755121
272.9768954
269.4902782
277.7886932
273.0542823
273.0370187
273.0479949
273.0530032
273.0533269
273.046751
273.0342406
273.0186938
273.0009539
272.9848693
272.9708681
272.9613329
272.9566024
272.9575353
272.9630126
272.9709408
272.9798979
272.9801354
269.3719862
277.8256612
273.0508942
273.0314399
273.0406364
273.0450613
273.0453083
273.0395998
273.0286754
273.0150488
272.9993502
272.9855077
272.9734463
272.9658295
272.9626462
272.964484
272.9700293
272.9772241
272.9848307
272.9838788
269.2370947
277.824052
273.0470031
273.0257296
273.033091
273.0369331
273.0371314
273.0322784
273.0230312
273.0112892
272.9978624
272.9861187
272.976175
272.9701832
272.9685563
272.9712318
272.9768293
272.9833204
272.9896449
272.9876585
269.1327326
277.7938153
273.0430602
273.0204239
273.026147
273.0294412
273.0296381
273.0256505
273.0179353
273.0080439
272.9965254
272.9867871
272.9786437
272.9742472
272.9737863
272.9770947
272.9826257
272.9884866
272.9937432
272.9910889
269.055653
277.7056295
273.0390207
273.0160452
273.0204739
273.0233267
273.0235376
273.0202387
273.0138118
273.0053875
272.9956301
272.9873335
272.9809602
272.9773993
272.9777802
272.9813369
272.9867663
272.9921525
272.9966354
272.993789
269.0460424
277.5613571
273.0351987
273.012928
273.0164679
273.0190251
273.0192781
273.0165274
273.0110331
273.0037495
272.9952235
272.9879665
272.9824689
272.9795613
272.9801926
272.9836947
272.9889079
272.9939677
272.9980523
272.9955035
269.0976861
277.3586625
273.0316768
273.0112029
273.014268
273.0166878
273.0169781
273.0145535
273.0096704
273.0031099
272.9955078
272.9887209
272.9835684
272.9806403
272.9810211
272.9840935
272.9889832
272.9939193
272.9979205
272.9962347
269.2289889
277.0824738
273.0284168
273.0107488
273.0137916
273.0162051
273.0165305
273.0142388
273.0096255
273.0034086
272.9962197
272.9895428
272.9841273
272.9808549
272.9804332
272.9827829
272.9871694
272.9920516
272.9963379
272.9958052
269.43431
276.7692045
273.0255844
273.0112699
273.0145445
273.0170787
273.0174404
273.0151549
273.0105928
273.0044165
272.9973329
272.9905551
272.9846224
272.980522
272.9789742
272.9802551
272.9840574
272.9889244
272.9936172
272.9945407
269.7054363
276.377626
273.0226783
273.0122781
273.0159795
273.0185986
273.0189385
273.0165967
273.0120007
273.0057923
272.9986424
272.9915565
272.9849929
272.9799524
272.9771194
272.9772938
272.9804126
272.9851563
272.990348
272.9925094
270.0446517
275.9868565
273.0201148
273.0132213
273.0173075
273.019996
273.0203444
273.0179045
273.0132103
273.0070249
272.9998623
272.9925489
272.9854597
272.9795862
272.9756519
272.9748185
272.9771607
272.9817376
272.987217
272.9907157
270.407357
275.5192155
273.0170884
273.0136659
273.0179671
273.0206059
273.0209015
273.0184249
273.0138088
273.0077823
273.0008072
272.9934881
272.9861503
272.9797675
272.9750901
272.9734764
272.975169
272.9793636
272.9849487
272.9892663
270.8242332
275.0980161
273.0142192
273.0132113
273.0174396
273.01988
273.020116
273.0177445
273.0134006
273.0078023
273.0013243
272.9944021
272.9872778
272.980914
272.9760833
272.9740539
272.9751484
272.978838
272.984145
272.9889851
271.2022823
274.5990046
273.0107794
273.0117501
273.0155499
273.0176519
273.0177944
273.015703
273.0119332
273.0070595
273.0014321
272.9953478
272.9890169
272.9832846
272.9788242
272.9767385
272.9773521
272.9803894
272.9850634
272.9897199
271.6438865
274.1758762
273.0075552
273.0092468
273.0123143
273.0139258
273.0140355
273.0123847
273.0094495
273.0056187
273.0012288
272.9964268
272.9914349
272.9869142
272.9833201
272.9815129
272.9818039
272.9840633
272.9877216
272.991787
272.0005251
273.6720469
273.0079565
273.0137366
273.0228362
273.0268658
273.0297653
273.0262323
273.0198061
273.0115029
273.0044573
272.9986897
272.9943241
272.989129
272.9857525
272.9839816
272.9841696
272.9869568
272.9898365
272.9943116
272.4458381
273.5437184
274.581577
275.0601383
276.1000291
276.3012336
276.7291038
276.4909071
276.115183
275.3949021
274.6595546
273.6703728
272.9680846
271.8927055
271.5675256
270.5861465
271.0089502
270.3766035
271.6803409
271.3318849
272.9073363
279.1375993
273.0845318
273.0575587
273.0751161
273.0831737
273.084311
273.0752162
273.0571388
273.0342074
273.0078952
272.9828257
272.9602767
272.9433544
272.9333814
272.9316294
272.9368929
272.9476014
272.9619177
272.9724657
268.0462144
279.1831677
273.082176
273.0540037
273.0708139
273.0787683
273.0799892
273.0712121
273.0538241
273.0317333
273.0062069
272.9820446
272.9601922
272.9440288
272.9345921
272.9331782
272.9384881
272.9488404
272.9625562
272.9708191
267.9571839
279.2840333
273.0809403
273.0499122
273.0655128
273.0731658
273.0744742
273.06632
273.0502404
273.0296827