/*--------------------------------*- C++ -*----------------------------------*\
| =========                 |                                                 |
| \\      /  F ield         | OpenFOAM: The Open Source CFD Toolbox           |
|  \\    /   O peration     | Version:  5.x                                   |
|   \\  /    A nd           | Web:      www.OpenFOAM.org                      |
|    \\/     M anipulation  |                                                 |
\*---------------------------------------------------------------------------*/
FoamFile
{
    version     2.0;
    format      ascii;
    class       volVectorField;
    location    "2";
    object      U;
}
// * * * * * * * * * * * * * * * * * * * * * * * * * * * * * * * * * * * * * //

dimensions      [0 1 -1 0 0 0 0];

internalField   nonuniform List<vector> 
30538
(
(-0.0251880671 -0.0005862525344 -0.001778418388)
(-0.02461737034 -0.001897446422 -0.005680195322)
(-0.02628926926 -0.00248251687 -0.006580833273)
(-0.02261356327 -0.003063609585 -0.006991603738)
(-0.02459971449 -0.002692170266 -0.004014980291)
(-0.02207697531 -0.002272870273 -0.001625502503)
(-0.03191260424 -0.001173188516 0.003277467236)
(-0.03721923984 -0.0001530327912 0.006034074474)
(-0.05116577149 0.001239973396 0.01115725006)
(-0.05420778482 0.00243106872 0.01411921701)
(-0.05553130834 0.003917489998 0.01840114307)
(-0.04320355979 0.00517919769 0.02113353539)
(-0.02687745646 0.00669509087 0.02311295002)
(-0.00294132652 0.007791081212 0.02458313037)
(0.02120573958 0.008778695391 0.02331404928)
(0.04650615955 0.00891507575 0.02319395799)
(0.07014201989 0.008478774966 0.01853296144)
(0.09083988095 0.006920630274 0.01642602407)
(0.1063264466 0.004654405713 0.008474003681)
(0.115385243 0.0015687539 0.004533805862)
(-0.02691042531 -0.001751732855 -0.001749319691)
(-0.02598159017 -0.005719901799 -0.005594801484)
(-0.0271083113 -0.007515796633 -0.006492573698)
(-0.02275346451 -0.00926015049 -0.006945727743)
(-0.02403620743 -0.008185816616 -0.004009787747)
(-0.02100573938 -0.006900478576 -0.001713462686)
(-0.03041246004 -0.00372257949 0.003154599502)
(-0.03550222936 -0.0005452406575 0.005809116463)
(-0.04932974819 0.00345158072 0.01087482046)
(-0.05229787634 0.00719707631 0.01374625648)
(-0.05359638923 0.01139622772 0.01796696184)
(-0.04125530537 0.01533767835 0.02062443667)
(-0.02503636747 0.01962785706 0.02255211831)
(-0.001467210217 0.02303751449 0.02400570405)
(0.02200098526 0.02581366389 0.02274825811)
(0.04629126943 0.02635772556 0.02267306756)
(0.06872683273 0.02492066173 0.01806643199)
(0.08812508029 0.02040355513 0.01606363183)
(0.1025511349 0.01364890874 0.008235004852)
(0.1109178659 0.00466169562 0.004454754247)
(-0.0303453921 -0.002890554623 -0.001711514791)
(-0.02872176447 -0.009395633812 -0.005411381011)
(-0.02876037315 -0.01243168457 -0.006322285864)
(-0.02308373441 -0.01532747682 -0.006824901536)
(-0.02293343586 -0.01358846006 -0.004016874644)
(-0.01893515925 -0.0115249144 -0.001862811696)
(-0.0274368749 -0.006221725138 0.002860334773)
(-0.03216349807 -0.001078883522 0.005353871908)
(-0.04570488818 0.005637285534 0.01027820255)
(-0.04857322087 0.01161426039 0.01299444099)
(-0.04980772197 0.0186404647 0.01708706281)
(-0.03741653656 0.02483336739 0.01962059114)
(-0.02145442143 0.03183011365 0.02147031549)
(0.001417393021 0.03715779531 0.02289484709)
(0.02354980428 0.04162244475 0.02165548167)
(0.04588466102 0.04238765202 0.02164804067)
(0.06594750056 0.04004034439 0.01716002074)
(0.08285334051 0.03267107342 0.01534492468)
(0.09522941817 0.02188485413 0.007771128571)
(0.1022758273 0.007435370072 0.004288512044)
(-0.03542634568 -0.004027108945 -0.00164283856)
(-0.0327713021 -0.01291749228 -0.005154993085)
(-0.03124991676 -0.01726415796 -0.006031188442)
(-0.02356045826 -0.0212492044 -0.006625318406)
(-0.02134970133 -0.01901521501 -0.003946839936)
(-0.01582408043 -0.01618701518 -0.002041626209)
(-0.02306144152 -0.009010865315 0.002549392161)
(-0.02714645636 -0.001906422807 0.00475191221)
(-0.04037472216 0.007254344577 0.009516577363)
(-0.04309495767 0.0154599671 0.01198953879)
(-0.044289973 0.02492490932 0.01589425859)
(-0.03197510857 0.0332799908 0.0182401101)
(-0.01634737986 0.04251757657 0.0199439897)
(0.005441169094 0.0495601774 0.02131509037)
(0.02569065289 0.05533761125 0.02007708713)
(0.04517947343 0.05624524426 0.02016988905)
(0.06186810873 0.05298710973 0.01583541496)
(0.07525749494 0.0431301 0.01431446547)
(0.08476047121 0.02884101214 0.007092221255)
(0.08994654179 0.009802391373 0.004052499971)
(-0.04214390075 -0.005056339274 -0.001555174355)
(-0.03812395717 -0.01611652141 -0.004799284465)
(-0.03459759046 -0.02158602618 -0.005635947233)
(-0.02431542662 -0.02665509751 -0.006271271642)
(-0.01935487647 -0.02391453756 -0.003812632123)
(-0.01188989257 -0.02056464911 -0.002165196688)
(-0.01737830576 -0.011547073 0.002144754536)
(-0.0206910618 -0.002938615848 0.004022219342)
(-0.03344172792 0.008681031787 0.008543560111)
(-0.03608531399 0.01862240477 0.01074297485)
(-0.03724954329 0.03049600183 0.01441001541)
(-0.02502467855 0.04041245072 0.01654641376)
(-0.009971227497 0.05169495413 0.01810379538)
(0.01045971229 0.05970930357 0.01936635757)
(0.02826157882 0.06651909441 0.01814485932)
(0.04422881791 0.0672149 0.01832017372)
(0.05668501444 0.0632142973 0.0142053572)
(0.06573970358 0.05120142926 0.01300781056)
(0.07171712271 0.03422997052 0.006266180839)
(0.0746571946 0.01156529512 0.003739479788)
(-0.05022333195 -0.005952506707 -0.001403701403)
(-0.04448840738 -0.0188152675 -0.004404503736)
(-0.03864561618 -0.02526906412 -0.005112963626)
(-0.02519990275 -0.0311787232 -0.005809406962)
(-0.01705049874 -0.02816830956 -0.003538047871)
(-0.0071017027 -0.02435095725 -0.002226279921)
(-0.01063238714 -0.01390374756 0.001790344389)
(-0.01286745072 -0.004191079483 0.003300366936)
(-0.02514215989 0.009473838571 0.007513360065)
(-0.02768700581 0.02097035398 0.009445116823)
(-0.02892545937 0.0348127253 0.0127998754)
(-0.01703277847 0.04603684887 0.01469389377)
(-0.002735114657 0.05891344936 0.01602936952)
(0.01589766582 0.06743975789 0.01718656131)
(0.03097614067 0.07474815955 0.01592885079)
(0.04284940468 0.07503581605 0.01620921489)
(0.05055240708 0.07033941125 0.01231494418)
(0.05471189927 0.05666331723 0.01151491381)
(0.05677258651 0.03782746684 0.005303826452)
(0.05724028555 0.01271965161 0.003394943889)
(-0.05948814632 -0.006364631286 -0.001225545695)
(-0.05179912663 -0.02079274274 -0.003899131573)
(-0.04328216652 -0.02750599298 -0.004459926689)
(-0.02636293025 -0.03420161762 -0.005142369672)
(-0.01454424853 -0.03078623655 -0.00309803632)
(-0.001819674389 -0.02689909771 -0.002112892996)
(-0.003145255648 -0.01519020483 0.001549715119)
(-0.004178757738 -0.00528917659 0.00263165749)
(-0.0156555655 0.01027130556 0.006526933761)
(-0.01819196601 0.02266587928 0.008149407231)
(-0.01957469222 0.03822074723 0.01117803195)
(-0.008026877889 0.05021897442 0.0128099623)
(0.005122005285 0.06409507783 0.01393396247)
(0.0216228104 0.07263981528 0.01492872602)
(0.03360930249 0.07992875712 0.01362066764)
(0.04112309802 0.0795685892 0.01395447048)
(0.04369481235 0.07426376478 0.01031966131)
(0.0426899994 0.05945016356 0.009902099564)
(0.04066719732 0.03960766494 0.004304220498)
(0.03857969384 0.01322230262 0.003005644516)
(-0.06924473796 -0.006422415602 -0.001012571112)
(-0.05945055683 -0.02161618467 -0.003351541758)
(-0.04805875615 -0.02817240038 -0.00371600869)
(-0.02751335206 -0.03515159648 -0.004387721228)
(-0.01190377625 -0.03156032165 -0.002535461986)
(0.003903406613 -0.02761943442 -0.001858714785)
(0.004629500818 -0.01543793803 0.001380085829)
(0.005116844682 -0.005540523519 0.002155902698)
(-0.005376938317 0.01092991768 0.005628446658)
(-0.00795527617 0.02383323928 0.006953270037)
(-0.009497687879 0.04060467102 0.009650950632)
(0.001225718199 0.05305731902 0.01102704575)
(0.01307146746 0.06714737123 0.011846649)
(0.02706011534 0.0753728943 0.01267974824)
(0.03585377785 0.08226644631 0.01127939752)
(0.03885505053 0.08106372081 0.01166417924)
(0.0363196236 0.07524351295 0.008266552046)
(0.03013372846 0.05976144028 0.008252072772)
(0.02409519751 0.03976689683 0.003281610899)
(0.0195490101 0.01309285294 0.002610348553)
(-0.07909531962 -0.005769818712 -0.0007962465042)
(-0.06720416009 -0.02106457766 -0.002701220472)
(-0.05277582459 -0.0264525985 -0.002874125976)
(-0.02875156394 -0.03364540731 -0.003445896478)
(-0.009237616211 -0.02948363225 -0.001744664268)
(0.009557235363 -0.02611957791 -0.001353735778)
(0.01245102084 -0.01386584952 0.001509955126)
(0.01444621555 -0.004526875111 0.001951049038)
(0.005112984972 0.01207108611 0.005043081034)
(0.002755741166 0.02487249027 0.006008515871)
(0.001032642165 0.04208208343 0.008387242189)
(0.01070608304 0.05434633319 0.009418423149)
(0.02084972697 0.06807085784 0.009993396558)
(0.03227989715 0.07548858574 0.01056942612)
(0.03761501913 0.08165177921 0.009101071264)
(0.03617078949 0.07945139822 0.009439532959)
(0.02861825776 0.07322547396 0.006316107107)
(0.01752190227 0.05758070422 0.006620858554)
(0.007669905164 0.03828218645 0.002302737294)
(0.000874107613 0.01246489861 0.002216869046)
(-0.08795390706 -0.004603389987 -0.0005679763502)
(-0.07412475575 -0.0186306428 -0.002093476636)
(-0.05687181002 -0.02240188815 -0.002054517249)
(-0.02965132929 -0.02916065605 -0.002520070506)
(-0.00660844012 -0.02465122191 -0.0009396253453)
(0.01492667412 -0.02215203411 -0.0007697756926)
(0.01988192761 -0.01067436972 0.001679633729)
(0.02343365812 -0.002202862537 0.001904589731)
(0.01541266017 0.01377890613 0.004509291067)
(0.01322693393 0.02596579512 0.005233622525)
(0.01128628493 0.0426997146 0.007173052173)
(0.01956115035 0.05419576802 0.00796029802)
(0.02797042392 0.06704506142 0.0082015687)
(0.03662797089 0.07322110646 0.008600267034)
(0.03864715351 0.07838030419 0.007012365957)
(0.03291334548 0.07504134499 0.007327356844)
(0.02084003772 0.06870703398 0.00444306846)
(0.005341240458 0.0531310756 0.005045106836)
(-0.007805346163 0.03548509009 0.001370712474)
(-0.01665139218 0.01128956324 0.001828446902)
(-0.09521711072 -0.002525423496 -0.0003788179469)
(-0.07986588127 -0.01439358742 -0.001480985841)
(-0.06013916938 -0.01534520006 -0.001250805688)
(-0.03034609515 -0.02149725992 -0.001540767418)
(-0.004314729288 -0.0162510379 -1.660391034e-05)
(0.01941974354 -0.01534717891 1.00934093e-05)
(0.02653647913 -0.004743157186 0.002169984298)
(0.031714619 0.001756804817 0.002121010633)
(0.02503360534 0.0163190681 0.00434676968)
(0.02315892315 0.02675496153 0.004681759309)
(0.02093968798 0.04227551652 0.006294493698)
(0.02787277334 0.05224087183 0.006701233897)
(0.03426117663 0.06367066304 0.006733255275)
(0.04025941226 0.06813699442 0.006838510502)
(0.03890174528 0.07190165938 0.005209280808)
(0.02934667913 0.06746195807 0.005396913204)
(0.01311684453 0.06127318206 0.002802611292)
(-0.006046907085 0.0463373737 0.003578860835)
(-0.02190703744 0.0310590572 0.0005230733988)
(-0.03249900285 0.009600715218 0.001433325434)
(-0.09959534882 1.601471957e-05 -0.0002072499376)
(-0.08329240779 -0.008329516927 -0.001038061618)
(-0.06182402444 -0.00590349836 -0.0006338532817)
(-0.03031180255 -0.01072488952 -0.0007914845677)
(-0.002299983444 -0.004957426217 0.0006643840206)
(0.02303922703 -0.005605374241 0.0006747964005)
(0.03195208021 0.003274924103 0.002461356254)
(0.0383102136 0.007163532239 0.002295170844)
(0.03307729739 0.01922488932 0.004006791341)
(0.03153753701 0.02718486212 0.004153374178)
(0.02925916274 0.0406432894 0.005288671715)
(0.03463743951 0.0484681617 0.005490650896)
(0.03917898579 0.05796922554 0.00523227709)
(0.04241619413 0.06027904779 0.005192552859)
(0.03817869653 0.06251623186 0.00347477808)
(0.02541646559 0.0569732594 0.003621139598)
(0.005905791559 0.05124558387 0.001262160362)
(-0.01608343976 0.03753752392 0.00223616995)
(-0.03375795311 0.0253505998 -0.0002651669148)
(-0.04567510589 0.007389034818 0.00106274424)
(-0.1007852816 0.003174371381 -0.0001042190314)
(-0.08417406251 -0.001042879493 -0.0006199509808)
(-0.06178726433 0.005717919097 -0.0001097949374)
(-0.02971485429 0.002274794242 -7.446052118e-05)
(-0.0007418809963 0.008862796607 0.001338527002)
(0.02522139843 0.00618630572 0.001367852841)
(0.03554361948 0.01301183069 0.00291792783)
(0.04297884558 0.01348377064 0.002570766667)
(0.03916962806 0.02253576749 0.003946178732)
(0.03827237305 0.02702604802 0.003763237294)
(0.0359468927 0.03766149036 0.004584987136)
(0.04007554043 0.04246551759 0.004436050257)
(0.04258732194 0.04936642027 0.004027534653)
(0.04345180004 0.04911626363 0.003736333576)
(0.03658008693 0.04965956325 0.002065311767)
(0.02140774222 0.04329674175 0.002078071218)
(-0.0006113081574 0.03807602298 1.726510427e-05)
(-0.02439387092 0.02660816473 0.001063637405)
(-0.04318317082 0.01812068665 -0.0008890160547)
(-0.05589661451 0.004759196285 0.0007073564104)
(-0.09781224192 0.00629895259 -1.533954256e-05)
(-0.08162845876 0.00698866127 -0.0004035527063)
(-0.0594659338 0.01787588783 0.0001851442646)
(-0.02813589952 0.01638603292 0.000310232504)
(0.0004161544709 0.02339772624 0.001634023528)
(0.02595335287 0.01902416054 0.00171673377)
(0.03709705893 0.02339271321 0.002935064844)
(0.04504251856 0.02037003117 0.002567111011)
(0.04263410554 0.02572858984 0.003513533139)
(0.04221428665 0.02627199976 0.003215058521)
(0.04014625211 0.03329741203 0.003610832836)
(0.04287632599 0.0344976206 0.0033384985)
(0.0438596431 0.03832123744 0.002705944081)
(0.04261596044 0.03520121157 0.002348199636)
(0.03408410871 0.03414603133 0.0006966077246)
(0.01727058914 0.02700188769 0.0007093365668)
(-0.005867472915 0.02270055756 -0.001101028569)
(-0.03020590714 0.01389007748 3.640344496e-05)
(-0.04914697713 0.009901177392 -0.001435014727)
(-0.06207830514 0.001659258501 0.0004047889376)
(-0.09115564274 0.009545077482 -8.172065432e-07)
(-0.07613252467 0.01486509037 -0.0001851796701)
(-0.055157543 0.03021594374 0.0003776546134)
(-0.0258658225 0.03042344745 0.0006483270242)
(0.001076188196 0.0382127651 0.001861276888)
(0.02520206889 0.03197941605 0.002009919011)
(0.03649177712 0.03405556669 0.003021369168)
(0.04463890964 0.02713858445 0.002589890865)
(0.0433364973 0.02867831234 0.003268110515)
(0.04362138642 0.02465725213 0.00276784171)
(0.0417504044 0.0275463474 0.002932068375)
(0.04360490548 0.02444827852 0.002430149822)
(0.04307184869 0.02479484272 0.001744816385)
(0.04050619305 0.01866261058 0.001249301498)
(0.03080789119 0.01582210002 -0.0002293525116)
(0.01336582318 0.007819440028 -0.0002911485426)
(-0.00984573099 0.004846086045 -0.001781793483)
(-0.03343570472 -0.0006843755622 -0.0007219047984)
(-0.05175402073 0.0004318803682 -0.001722656001)
(-0.06428333603 -0.001805485234 0.0001446991319)
(-0.08035674747 0.01239273842 3.282395646e-05)
(-0.06716804026 0.02234713832 -0.0001557609036)
(-0.04849655118 0.04162504895 0.0004101283195)
(-0.02254062408 0.04373728536 0.0006647179901)
(0.001475571582 0.05201080705 0.001751834976)
(0.02300791368 0.04430701736 0.001901986096)
(0.03368489417 0.04389328033 0.002669798101)
(0.0412629837 0.03328917076 0.002254212784)
(0.04089322788 0.0308240325 0.002636558794)
(0.04142191463 0.02229929696 0.002111961739)
(0.04000767529 0.02081835775 0.002021066204)
(0.04092427248 0.0133219155 0.001511656464)
(0.03976915718 0.01000968796 0.0007542996745)
(0.03629070045 0.0007477410756 0.0002940862462)
(0.02644972648 -0.003982747781 -0.001045402669)
(0.009560004049 -0.01257228152 -0.001036717059)
(-0.01184102158 -0.01374692563 -0.002248765373)
(-0.03330947667 -0.01574525825 -0.00120617497)
(-0.04984788295 -0.009318753897 -0.001866892796)
(-0.06131880533 -0.005382855249 -1.504094077e-05)
(-0.06643015157 0.01495891311 -8.940301047e-06)
(-0.05562713579 0.02879520448 -5.907612324e-05)
(-0.04007178443 0.05175947776 0.0003681238643)
(-0.01857475589 0.05540898103 0.0007075897409)
(0.001453005099 0.06430796948 0.001577825023)
(0.01946453622 0.05511587099 0.001793224611)
(0.028718688 0.05254612721 0.002351476439)
(0.03543204188 0.03836595707 0.001992903309)
(0.03560024008 0.03227793822 0.002194646274)
(0.03656320972 0.01937463916 0.001643739592)
(0.03542027423 0.01372727723 0.001468863916)
(0.0359730737 0.001825822461 0.0009072618627)
(0.03420043177 -0.005049742365 0.0002479379)
(0.03063998103 -0.01737845729 -0.0002256984712)
(0.0214237599 -0.02389159482 -0.001269346367)
(0.006503509216 -0.0326215607 -0.001300792229)
(-0.01205400208 -0.0318656577 -0.002178760692)
(-0.03028798365 -0.03030209363 -0.001334268005)
(-0.04432535211 -0.01875223014 -0.001699080336)
(-0.0541043428 -0.008829360208 -0.0001163209861)
(-0.04929126548 0.01683438554 2.014758727e-05)
(-0.04131496818 0.03383383974 -0.0001009368)
(-0.02972088892 0.0594824691 0.0002890182491)
(-0.01370643422 0.06454296449 0.000495479343)
(0.001253509512 0.07376732565 0.001198661875)
(0.01469916584 0.06359600325 0.001318335589)
(0.02186411054 0.05914131604 0.001720037186)
(0.02697299276 0.04217494877 0.00140208093)
(0.02751001043 0.03293622364 0.001486468297)
(0.02832982533 0.01630833905 0.001020111507)
(0.02761964952 0.006830653534 0.0007823585531)
(0.02767508096 -0.008714670637 0.0003406837954)
(0.02622086275 -0.01872647917 -0.000221048326)
(0.02299620368 -0.03351743493 -0.000553498823)
(0.01570322822 -0.04149094416 -0.001358033869)
(0.003950938642 -0.05020186479 -0.001307221261)
(-0.01017494112 -0.04769890528 -0.001932479465)
(-0.02402755721 -0.0429455213 -0.001221067531)
(-0.03456327721 -0.02692726134 -0.001421441479)
(-0.04202897525 -0.01180155864 -0.0001273807777)
(-0.03053956087 0.0181157312 -2.656443237e-05)
(-0.02567312947 0.03711487819 -1.017104111e-05)
(-0.018449797 0.06463997774 0.0001687608484)
(-0.008545454751 0.07052697145 0.0003977669138)
(0.0007520197238 0.0801111083 0.0007764477286)
(0.009135695324 0.06924982431 0.0009305230272)
(0.0136186 0.06373288864 0.001130895317)
(0.0169847343 0.04496009541 0.0009762867084)
(0.01739787791 0.03365396476 0.0009837524196)
(0.01815818909 0.01437009084 0.0006826858614)
(0.01774752816 0.002146709586 0.000506654311)
(0.0179136453 -0.01612464059 0.0001793629415)
(0.01666543731 -0.02855339516 -0.0001601099506)
(0.01454555257 -0.04520543426 -0.0004140112792)
(0.009641849117 -0.05424290561 -0.0008671450292)
(0.002142682965 -0.06281596617 -0.0008816175875)
(-0.00687975429 -0.05894092222 -0.001208311533)
(-0.01555421821 -0.05185013668 -0.0008079039965)
(-0.02217755964 -0.03260973323 -0.0008748872476)
(-0.02688481922 -0.01388016367 -0.0001045545561)
(-0.0102021169 0.01883784749 2.112933521e-05)
(-0.008511127892 0.03910063922 -4.918590536e-05)
(-0.006077956509 0.06767205723 7.411097659e-05)
(-0.002734089024 0.07428946386 8.941381928e-05)
(0.0003888646909 0.08399130454 0.0002734312288)
(0.003154837069 0.07284366464 0.0002608818193)
(0.004692339092 0.0665564517 0.000364397866)
(0.005697529263 0.04668818631 0.0002563493844)
(0.005873957531 0.03411551629 0.0002741824165)
(0.006065467901 0.01341525554 0.0001368187002)
(0.00609959687 -0.0003431222989 5.10183608e-05)
(0.006048527102 -0.02034258694 -6.057040005e-05)
(0.005742821263 -0.03408869426 -0.0001972459215)
(0.004902108384 -0.05183515135 -0.0002534811266)
(0.003284971908 -0.06136288562 -0.0004342964035)
(0.000618194819 -0.0700113663 -0.0003901927999)
(-0.00247134992 -0.06530387508 -0.0005138505618)
(-0.005489054889 -0.05700967155 -0.0003265942734)
(-0.007706040874 -0.03591228652 -0.0003515925842)
(-0.009312948588 -0.01509936146 -3.348240169e-05)
(-0.03509327493 -0.0005308774169 -0.009824974286)
(-0.03112673569 -0.001735742361 -0.01263817661)
(-0.02793698406 -0.002325193195 -0.02471848498)
(-0.01913732301 -0.002986576132 -0.01783721521)
(-0.01742424572 -0.002692227316 -0.01905193381)
(-0.01232602921 -0.002447957641 -0.004668191442)
(-0.02170797869 -0.001408218521 0.000388541639)
(-0.02666431859 -0.0005834789778 0.01495802267)
(-0.04033279474 0.0007028582431 0.02349051609)
(-0.04445908683 0.001718637914 0.03640253946)
(-0.04614801193 0.003081265595 0.04570099574)
(-0.03686876584 0.004204667018 0.05506429996)
(-0.02225102687 0.005624931525 0.0612157824)
(-0.002662831179 0.006686024632 0.06423935221)
(0.01936407344 0.007692670105 0.06474827999)
(0.04011121583 0.00791768503 0.06046721315)
(0.06102826261 0.007579876052 0.05403729638)
(0.07713536134 0.006219594103 0.04170570977)
(0.09040132525 0.00419493395 0.02726372569)
(0.09758057679 0.001416423914 0.008732980583)
(-0.0366727565 -0.001627351915 -0.009756485835)
(-0.03241428509 -0.005212042376 -0.01234042784)
(-0.02881790966 -0.007057984564 -0.02447818419)
(-0.01939042154 -0.00897991826 -0.01756530788)
(-0.01703610676 -0.008228161774 -0.01905839087)
(-0.0114167687 -0.007372953686 -0.004793218564)
(-0.02038342163 -0.004527314009 -3.88163425e-05)
(-0.02515913145 -0.001845334957 0.01441019808)
(-0.03868700249 0.001779921876 0.02272002451)
(-0.04276104917 0.00505739253 0.03545454472)
(-0.04439523326 0.008882489039 0.04462072895)
(-0.03508042126 0.01246043416 0.05380668805)
(-0.020498881 0.01651187498 0.05988470608)
(-0.001198764262 0.01982625326 0.06280823092)
(0.02023798105 0.02265432878 0.06333609023)
(0.04002835653 0.02341687369 0.05907132209)
(0.05982267613 0.02229962033 0.05280442326)
(0.0747302331 0.01833462653 0.04067241478)
(0.08700323316 0.01231480025 0.02662410126)
(0.09354548258 0.004192880928 0.008476878421)
(-0.03982765713 -0.002691871571 -0.009548741905)
(-0.03497918729 -0.008564533254 -0.01181349597)
(-0.03057250367 -0.01159440083 -0.02386213098)
(-0.0199651548 -0.01476458939 -0.01705795101)
(-0.01628640727 -0.01350713218 -0.01889099588)
(-0.009718340797 -0.01216199704 -0.00500888351)
(-0.01780606062 -0.007382805334 -0.0007353567432)
(-0.02222416592 -0.003097740739 0.01339184384)
(-0.03545051394 0.003043551805 0.02120528893)
(-0.03942810961 0.008256618188 0.03365433089)
(-0.04094086352 0.01466822803 0.04236699455)
(-0.03149482004 0.02028731411 0.05136435504)
(-0.01705249754 0.02687054871 0.05716274955)
(0.001672357315 0.03204004846 0.06000143808)
(0.02190551948 0.03653723864 0.06047787949)
(0.03987255212 0.03762462248 0.05632018091)
(0.05745017388 0.03578480537 0.05032291975)
(0.07005821759 0.02932243369 0.03865681181)
(0.08041668025 0.01971664775 0.02533125051)
(0.08575933059 0.006664935254 0.007993626424)
(-0.04448778892 -0.003733499542 -0.009356639573)
(-0.03873030196 -0.01175796541 -0.01093245686)
(-0.03315184297 -0.01599280571 -0.02302584111)
(-0.02073950348 -0.02024259776 -0.01616031201)
(-0.01519228079 -0.01865265966 -0.01868953707)
(-0.007109268104 -0.01676112649 -0.005180808345)
(-0.01398996046 -0.01037119131 -0.001731942688)
(-0.01781871781 -0.00443664964 0.01196276314)
(-0.03066138551 0.003940539447 0.01918684776)
(-0.03454011429 0.01115385463 0.03112144278)
(-0.03592165717 0.01979476619 0.03947225519)
(-0.02648627584 0.02741079867 0.04794972748)
(-0.0122051927 0.03609811628 0.05350931215)
(0.005627685853 0.04284232281 0.05601162349)
(0.02418826445 0.04864420553 0.05649900839)
(0.0395092561 0.04990326279 0.05235653606)
(0.05396637602 0.04734114024 0.04680965895)
(0.06334092086 0.03864756096 0.03574527063)
(0.07101150043 0.02597755774 0.02352380578)
(0.07467932241 0.008747205515 0.007272296772)
(-0.05062340792 -0.004605483538 -0.008950611274)
(-0.04366858809 -0.01469382049 -0.009922544786)
(-0.03651306784 -0.01986531264 -0.02171323006)
(-0.02184008098 -0.02513867013 -0.01500840949)
(-0.01381613515 -0.02315374728 -0.0180854627)
(-0.003886864829 -0.02091356445 -0.005277732769)
(-0.009107612416 -0.01298295 -0.002694855717)
(-0.01213234324 -0.005697207486 0.01032177809)
(-0.02442764914 0.004858937272 0.01667167515)
(-0.02822434975 0.01376136623 0.02813418324)
(-0.02947374283 0.0245807734 0.0356487083)
(-0.02000486352 0.03365045737 0.04379362928)
(-0.006168643911 0.04422879156 0.04879227014)
(0.01052803124 0.05185285 0.05105424554)
(0.02689487941 0.05861706725 0.05138373565)
(0.03896162486 0.05966220914 0.04740722745)
(0.04950270126 0.05648875969 0.04232427608)
(0.05491189828 0.04583506954 0.03214640022)
(0.05930246985 0.03082059116 0.02120470924)
(0.06094614945 0.0102999517 0.006407876573)
(-0.05798006279 -0.005330414292 -0.008549212029)
(-0.04953342808 -0.0171075706 -0.008599153445)
(-0.04047403063 -0.02304956041 -0.02017529898)
(-0.02305629949 -0.02905292718 -0.01339240827)
(-0.01219645851 -0.02682507361 -0.01723941729)
(6.282722684e-05 -0.02425770045 -0.005103993254)
(-0.003238427542 -0.0150213112 -0.00349123969)
(-0.005222607302 -0.006840655931 0.008570301787)
(-0.01690139968 0.005630043111 0.01428433385)
(-0.0206036911 0.01601788732 0.02493833875)
(-0.02188602118 0.0286496894 0.0319581148)
(-0.01262968208 0.03891644733 0.03920854288)
(0.0006297127976 0.05096684515 0.04380348115)
(0.01577897148 0.05899475381 0.04549442653)
(0.0297024884 0.0661319262 0.0456966614)
(0.03801088871 0.0667025293 0.04173813631)
(0.04419458407 0.06291695216 0.03723269703)
(0.04513834351 0.05071515353 0.02801145456)
(0.04590001663 0.03408275093 0.0185776611)
(0.04531294612 0.01130714955 0.005404281558)
(-0.06633703694 -0.005626155417 -0.0079120827)
(-0.0562042813 -0.01879374704 -0.007241417549)
(-0.04489313049 -0.02485944298 -0.01819139388)
(-0.0244982 -0.03150341812 -0.01156115727)
(-0.0104203217 -0.02888267999 -0.01590657866)
(0.004446611159 -0.02620554338 -0.004685958655)
(0.003205531932 -0.01596520545 -0.004067830381)
(0.002459100166 -0.007471506314 0.007027628407)
(-0.00826218308 0.006684551222 0.01178368236)
(-0.01195904392 0.01791117209 0.02176678809)
(-0.01331759027 0.032227697 0.02772420128)
(-0.004255588242 0.04323152736 0.0344924781)
(0.007983059215 0.05612772211 0.03826174378)
(0.02121998768 0.06405725719 0.03958994042)
(0.03233639107 0.07107700558 0.0394820421)
(0.03669204351 0.07088931599 0.03566790985)
(0.03819711842 0.06653192992 0.03169360139)
(0.03446176465 0.05320266128 0.02358712809)
(0.0314370734 0.03574470069 0.01574149621)
(0.02854490056 0.01171266758 0.004357408745)
(-0.0750824108 -0.0056113326 -0.007293925412)
(-0.06314225492 -0.01934021183 -0.005629385378)
(-0.04938880713 -0.02516267455 -0.01599083751)
(-0.02588578917 -0.03192524714 -0.009323200248)
(-0.00844789868 -0.02899836493 -0.01410989797)
(0.009191011089 -0.02619901608 -0.003790455046)
(0.0100023462 -0.01553603247 -0.004077976709)
(0.01078611736 -0.006851303964 0.00600140242)
(0.001048519691 0.008108149998 0.01002608983)
(-0.002561863398 0.01975099533 0.0188943254)
(-0.004023600193 0.03529503737 0.02437584069)
(0.004241244973 0.04659251055 0.02992724926)
(0.01530674253 0.0596389365 0.033082894)
(0.02631449598 0.06706501593 0.03365282426)
(0.0345208239 0.07365708744 0.03327734114)
(0.03479793966 0.07244518477 0.02945540514)
(0.03167909102 0.06759558968 0.0260221244)
(0.02329731656 0.05347554592 0.01902094585)
(0.01655114134 0.03593722644 0.01281603261)
(0.01144452138 0.01157605458 0.003321943609)
(-0.08378154513 -0.00492964385 -0.006513146178)
(-0.07005180128 -0.01867134732 -0.004093596465)
(-0.0537146789 -0.02329576525 -0.01357783053)
(-0.02719664933 -0.03009194354 -0.007044769554)
(-0.006374342615 -0.02646658775 -0.01197070999)
(0.01395818286 -0.02408266863 -0.00263139088)
(0.01687945852 -0.01332402552 -0.003779244002)
(0.0191723659 -0.005024519627 0.005412328995)
(0.01054910926 0.00994386328 0.008384279942)
(0.007243358944 0.02159013333 0.01648659354)
(0.005617021587 0.03736672191 0.02087000938)
(0.01292101025 0.04849574216 0.02565763813)
(0.02241330647 0.06111958371 0.02788550484)
(0.03109446922 0.06770391269 0.02791446465)
(0.03612350436 0.07351579181 0.02712611044)
(0.032408677 0.07117130935 0.02336559447)
(0.02477244368 0.06592017298 0.02043411362)
(0.01199822002 0.05143378719 0.01451494765)
(0.00179270409 0.03461890318 0.009931709123)
(-0.005360368902 0.01096234968 0.002325496878)
(-0.0915290294 -0.003812904436 -0.005755204329)
(-0.07617265693 -0.01630713695 -0.002499217347)
(-0.05738659595 -0.01931430065 -0.01105562224)
(-0.02812237264 -0.02553189498 -0.004558812498)
(-0.00421304293 -0.02137190251 -0.009352030257)
(0.01847191853 -0.01958307639 -0.001016565711)
(0.02347155594 -0.00943679078 -0.002618453206)
(0.02722797801 -0.001894761264 0.005358368602)
(0.01987434622 0.01245711783 0.0076546676)
(0.01680763049 0.02343510859 0.01445900224)
(0.01495546849 0.03871118578 0.01814408313)
(0.02098859083 0.0490074049 0.02169867561)
(0.02884900881 0.06082407756 0.02321153792)
(0.03504328263 0.06609270141 0.02245461052)
(0.03695724479 0.07095278357 0.02125317112)
(0.02943168094 0.06731808285 0.01750265336)
(0.01771341152 0.06198952295 0.01499652893)
(0.001087987102 0.04729720195 0.01018964271)
(-0.01208310438 0.03207134098 0.007068686622)
(-0.02108490272 0.009783461486 0.00137949311)
(-0.09772748113 -0.0018391337 -0.00500018256)
(-0.0810801025 -0.01238049722 -0.001223798471)
(-0.06016990538 -0.01263859489 -0.008795218412)
(-0.02865763946 -0.01819945399 -0.002392890423)
(-0.002193925653 -0.01319223424 -0.00696634803)
(0.02238034676 -0.01260805162 0.000615923732)
(0.02937550519 -0.003261529011 -0.001491155412)
(0.03464010032 0.002495122149 0.005565063702)
(0.02846628084 0.01536881473 0.006846689579)
(0.02578390952 0.0246955098 0.01272931244)
(0.02366152168 0.03868054761 0.01530102592)
(0.02849892825 0.0475234797 0.01808815286)
(0.03445957947 0.05800150199 0.01872540928)
(0.03822492399 0.06161987138 0.01744507208)
(0.03697896274 0.06514705321 0.01585156092)
(0.02607954237 0.06037878831 0.01211238559)
(0.01061049759 0.05518304454 0.01008163823)
(-0.009223031016 0.0409506527 0.006173332568)
(-0.02474328583 0.02792088708 0.004451107185)
(-0.03523686134 0.008129492482 0.0004375807299)
(-0.1012878373 0.0005416510192 -0.004261674923)
(-0.08390073103 -0.006683105377 -0.0001573181916)
(-0.06144886031 -0.003719527478 -0.006622735452)
(-0.02853427107 -0.007921468259 -0.0004477248442)
(-0.0002961394377 -0.002358398913 -0.00432573321)
(0.02547215714 -0.003019285103 0.002358763152)
(0.03413363916 0.004707269502 0.0003090905884)
(0.04039154081 0.00802334246 0.006026637531)
(0.03557000329 0.01846768129 0.00674687571)
(0.0332676507 0.02543795285 0.01122315132)
(0.03106667597 0.03738027444 0.01301226661)
(0.03459301526 0.04414200076 0.01464486689)