/*--------------------------------*- C++ -*----------------------------------*\
| =========                 |                                                 |
| \\      /  F ield         | OpenFOAM: The Open Source CFD Toolbox           |
|  \\    /   O peration     | Version:  5.x                                   |
|   \\  /    A nd           | Web:      www.OpenFOAM.org                      |
|    \\/     M anipulation  |                                                 |
\*---------------------------------------------------------------------------*/
FoamFile
{
    version     2.0;
    format      ascii;
    class       volScalarField;
    location    "8.8";
    object      p;
}
// * * * * * * * * * * * * * * * * * * * * * * * * * * * * * * * * * * * * * //

dimensions      [1 -1 -2 0 0 0 0];

internalField   nonuniform List<scalar> 
30538
(
101303.3415
101313.7842
101308.1465
101311.7096
101314.6082
101322.441
101324.8307
101327.0827
101330.2159
101328.4921
101318.1242
101305.106
101300.8524
101303.9682
101306.2973
101302.301
101295.2236
101289.732
101288.6489
101293.3156
101301.5343
101309.9886
101309.4032
101314.0952
101314.7998
101321.6836
101324.297
101325.9369
101326.3185
101324.8957
101319.6248
101310.3273
101303.6606
101300.7664
101300.916
101300.0672
101298.0656
101295.468
101294.1546
101296.5759
101298.6546
101304.0563
101308.7986
101315.1047
101314.0387
101320.1683
101323.0478
101324.2592
101321.8727
101320.6374
101321.1682
101317.4985
101308.343
101298.141
101295.6818
101298.5431
101302.3608
101302.6598
101300.9147
101300.2929
101296.6353
101299.3546
101306.1979
101313.5153
101311.7746
101317.2401
101320.9993
101322.8656
101319.0379
101317.8043
101321.6377
101322.2362
101312.715
101298.7325
101295.0757
101300.0895
101306.5262
101307.1949
101303.9955
101301.6528
101297.1975
101299.4771
101303.7585
101310.4015
101308.8918
101313.4601
101317.5006
101321.3558
101319.4225
101317.6828
101319.9626
101321.5872
101314.5406
101302.4208
101299.523
101304.1394
101309.1168
101307.8677
101303.1057
101300.5442
101299.7418
101303.6502
101302.4231
101306.5469
101305.6558
101309.6544
101313.377
101319.5105
101321.7431
101319.1676
101316.7899
101316.8318
101313.7001
101307.3123
101306.2598
101308.3008
101309.4021
101305.9675
101300.9759
101299.0325
101301.1566
101306.341
101301.1498
101302.7886
101302.2367
101306.5445
101310.24
101317.4904
101322.7439
101320.5178
101314.9568
101312.6536
101312.2769
101311.435
101311.5521
101310.1851
101307.8383
101304.0256
101300.9941
101299.5489
101300.431
101305.1968
101299.4336
101299.5811
101298.8565
101304.2
101308.5095
101315.1613
101320.9877
101320.9062
101315.6872
101311.4414
101311.6425
101314.1963
101314.4178
101309.9327
101305.7105
101303.5471
101303.4542
101301.8878
101298.2425
101301.4751
101297.5167
101297.486
101296.4404
101302.5218
101307.6253
101312.6077
101317.3041
101320.199
101318.1559
101312.3772
101311.6009
101315.468
101315.9379
101309.5862
101304.7962
101304.2692
101306.5386
101304.2442
101296.9912
101298.6117
101295.8686
101296.4695
101294.8985
101300.6575
101306.0972
101310.6461
101314.3529
101319.2218
101318.9904
101313.3114
101311.4723
101315.8164
101317.0538
101311.0503
101306.2751
101305.6489
101307.0531
101304.2832
101297.3509
101297.9607
101294.3388
101295.8088
101294.3967
101299.03
101304.1496
101309.6023
101313.6352
101317.4105
101317.1672
101313.4558
101312.0613
101315.4343
101317.6971
101313.8725
101309.8318
101306.8567
101304.6331
101301.7627
101298.6415
101298.4969
101292.7812
101294.9748
101294.5413
101298.1929
101302.8108
101309.4766
101313.4783
101314.6203
101313.549
101313.4821
101313.6303
101315.2487
101316.9233
101315.822
101313.4012
101307.8592
101301.3842
101298.9571
101299.0621
101297.8368
101291.1697
101293.9558
101295.5448
101299.3427
101303.1352
101309.5883
101312.0734
101310.3443
101309.9384
101314.2255
101316.1168
101314.7643
101314.3029
101315.0575
101314.7813
101308.4641
101300.0956
101297.9346
101298.0705
101295.7303
101290.0803
101293.0278
101296.7292
101301.7422
101304.9601
101309.3003
101309.0851
101306.0724
101307.5346
101315.0239
101317.8405
101313.7065
101310.7165
101311.9986
101313.2867
101308.7021
101301.5442
101299.2395
101296.4872
101293.5469
101290.3681
101292.8931
101297.6545
101303.6689
101306.3046
101308.0475
101306.0083
101303.8392
101306.8815
101314.5405
101317.3011
101311.8723
101307.9826
101309.0142
101310.2323
101308.0917
101304.337
101301.4293
101295.875
101293.0751
101292.3916
101293.8362
101297.4258
101303.0724
101305.1954
101305.722
101304.4551
101304.0431
101307.0948
101312.1035
101313.4333
101309.1914
101307.3189
101307.6635
101307.7757
101306.8245
101305.7164
101302.6582
101296.8066
101294.7462
101295.6534
101295.5967
101296.0746
101300.3748
101302.0216
101303.0658
101304.4002
101305.7993
101307.7122
101308.432
101307.4296
101306.1538
101307.3653
101307.8975
101306.5626
101304.8503
101304.7419
101301.9844
101298.7008
101297.4883
101298.9043
101297.6801
101294.5726
101297.1666
101298.5333
101300.8938
101304.3785
101307.0448
101307.6529
101304.8988
101302.1031
101303.4453
101306.6389
101307.9588
101305.6983
101302.7762
101302.2777
101300.2589
101300.0606
101299.7265
101300.6847
101299.3825
101295.0595
101295.3246
101296.9949
101299.7429
101303.4804
101306.2264
101306.083
101301.4377
101299.4436
101300.6601
101304.754
101306.1939
101304.2185
101300.922
101300.1923
101299.1223
101300.1693
101299.8326
101301.1984
101299.1447
101297.7072
101298.6325
101297.9493
101298.9105
101301.5187
101302.4806
101302.6254
101300.5579
101298.8202
101299.9657
101301.6243
101302.7731
101301.5386
101300.3377
101299.5075
101299.3286
101300.3508
101307.4008
101311.3276
101319.1526
101316.4287
101322.3267
101323.18
101325.0479
101325.9959
101326.5017
101321.7121
101309.8429
101300.9556
101299.8532
101303.6851
101302.8636
101297.119
101292.1315
101292.4552
101296.6264
101300.5205
101307.7965
101310.7919
101317.8855
101316.331
101322.2223
101323.8511
101326.1757
101325.4818
101323.571
101319.973
101312.1094
101304.0412
101299.3199
101300.2982
101300.2444
101298.0705
101295.626
101295.7493
101298.1447
101300.0453
101306.9122
101307.4357
101313.4928
101314.3473
101321.0389
101324.0446
101327.1486
101324.9923
101320.6821
101318.1491
101315.0736
101308.4861
101299.9472
101297.1469
101297.6735
101299.911
101300.6451
101300.3462
101300.2354
101299.3494
101304.7802
101302.281
101307.7259
101310.8912
101318.6167
101322.4516
101326.8853
101325.1983
101320.131
101317.1212
101316.6268
101312.2831
101302.4621
101297.0539
101297.5958
101302.1546
101304.4816
101303.461
101301.286
101299.5981
101303.8944
101299.7533
101303.8762
101308.139
101315.603
101318.3596
101324.062
101326.0184
101322.0354
101316.6876
101315.7781
101314.0825
101306.5522
101300.4543
101299.8016
101303.9381
101305.9645
101304.0272
101301.0335
101300.7042
101305.1989
101300.1727
101302.8603
101306.167
101312.4882
101313.0134
101319.7724
101326.1547
101323.9883
101316.5377
101313.7485
101313.8891
101310.3749
101305.2078
101303.0881
101304.7956
101305.1786
101302.5996
101300.0419
101300.5267
101305.512
101301.9324
101303.1554
101303.5137
101309.4037
101310.1593
101316.6831
101323.5059
101323.215
101316.9416
101313.2393
101313.5562
101312.4682
101308.9609
101306.1454
101305.2901
101303.6253
101300.9815
101299.3872
101299.1742
101303.5862
101302.2067
101302.4898
101299.6075
101305.9897
101310.2754
101315.7426
101318.7097
101319.6031
101317.5972
101314.8031
101313.5115
101312.5935
101311.112
101308.6871
101306.1116
101303.0404
101300.4279
101299.5553
101296.6741
101299.0828
101299.8074
101300.4742
101295.6683
101303.0343
101311.3711
101315.5202
101313.6604
101315.6049
101318.9342
101317.4828
101313.3736
101311.0968
101312.0971
101311.0355
101307.8379
101303.7925
101301.1689
101300.3894
101295.4957
101295.3165
101296.0904
101298.3648
101293.7916
101301.0078
101310.6268
101314.5032
101310.5473
101313.5734
101320.0049
101319.0462
101312.1597
101309.289
101312.4949
101313.3325
101310.1174
101305.268
101302.3489
101301.1476
101296.2815
101294.7342
101293.8251
101297.4223
101294.578
101300.8528
101307.8133
101312.0741
101310.6212
101313.6631
101319.0366
101318.2881
101311.1724
101308.8624
101312.8797
101314.7857
101311.9661
101306.5053
101303.1296
101301.2652
101298.6039
101297.583
101293.6967
101297.1421
101296.9302
101301.8773
101304.2913
101309.1944
101312.3771
101314.3053
101315.9295
101315.78
101311.6492
101310.494
101313.2222
101314.6204
101312.2171
101307.1043
101303.1965
101300.8629
101299.9897
101300.0569
101294.4681
101296.3296
101298.9264
101303.3101
101302.1959
101306.9765
101313.2594
101313.6981
101311.4136
101312.6243
101313.7616
101313.6424
101313.0325
101312.4028
101310.6972
101307.1208
101303.3938
101300.7266
101300.0672
101300.5793
101294.6064
101294.7347
101299.2345
101303.8272
101302.0672
101306.0485
101312.4872
101311.4943
101307.115
101309.6111
101315.8712
101316.2099
101311.7784
101308.8799
101308.0394
101306.8372
101304.0945
101301.233
101298.914
101298.7466
101293.9052
101293.5523
101298.2929
101303.3576
101302.9963
101306.1666
101310.3373
101308.7917
101304.5618
101307.2607
101315.2741
101315.9717
101310.3741
101305.8714
101305.4703
101306.2339
101305.3335
101302.1063
101298.4286
101296.996
101293.8367
101294.2164
101297.3943
101301.9607
101303.2011
101306.1619
101307.9521
101306.4069
101303.9977
101305.7193
101311.3382
101312.73
101308.9077
101304.4805
101303.946
101305.2018
101305.365
101302.6263
101299.1387
101296.7079
101295.4908
101296.7352
101297.5347
101300.391
101302.5377
101305.6718
101305.7818
101304.7775
101304.9375
101304.8981
101305.9027
101307.7306
101307.6746
101304.8528
101303.4971
101303.6511
101304.1604
101302.1595
101300.4729
101298.2151
101298.5705
101299.7142
101298.3055
101299.1577
101301.3679
101304.65
101303.5391
101303.3138
101306.105
101304.5924
101301.4693
101303.3865
101305.9857
101305.4312
101303.2546
101301.9381
101302.0117
101301.0644
101301.0489
101299.7312
101300.96
101302.198
101299.532
101298.5666
101300.5623
101303.3998
101301.5606
101301.6119
101305.7312
101303.5622
101299.6307
101299.7829
101304.0479
101304.5736
101302.5558
101300.5305
101300.5993
101300.0557
101300.1107
101299.783
101301.4434
101300.2771
101300.2945
101299.8485
101300.0194
101300.0927
101300.2688
101301.3104
101302.7053
101301.2882
101299.559
101299.6226
101301.0744
101302.2842
101300.9427
101299.9074
101299.9917
101299.6632
101296.6334
101295.9618
101316.8121
101326.6263
101317.2861
101321.7206
101323.3894
101325.8668
101321.3923
101322.3418
101325.4886
101315.7455
101300.396
101294.2067
101300.37
101303.4572
101300.5867
101295.6241
101294.1457
101297.8475
101299.6338
101303.2515
101312.2049
101319.5513
101317.1084
101321.9094
101323.0505
101327.5559
101325.7636
101322.4773
101319.658
101314.1822
101305.2651
101298.3553
101298.3209
101298.5877
101297.3943
101296.147
101296.25
101298.6246
101303.6092
101312.0231
101306.3385
101309.9196
101314.79
101320.9209
101322.7116
101330.1515
101330.515
101322.65
101313.7163
101311.8714
101310.5903
101303.868
101297.6385
101294.1396
101294.6598
101297.5742
101299.6095
101300.2968
101306.0134
101316.4648
101300.928
101301.9678
101311.0607
101319.2206
101321.47
101330.3007
101333.0863
101324.1985
101310.6656
101309.675
101313.2986
101308.7558
101298.9972
101292.4765
101294.1494
101299.8797
101303.0528
101302.0619
101304.7716
101312.0087
101298.5316
101299.1624
101309.2942
101318.4685
101317.9259
101325.3168
101331.9586
101328.1141
101313.9024
101309.4838
101312.3569
101311.3727
101302.1234
101294.2054
101295.5674
101301.6767
101305.0374
101302.8618
101300.267
101302.8045
101299.1026
101300.7211
101309.06
101318.1991
101312.8215
101317.4641
101327.3765
101330.4344
101320.7361
101311.5439
101310.1111
101311.151
101305.287
101298.1901
101298.2117
101302.3767
101303.9816
101302.0436
101296.8439
101297.351
101302.4208
101303.9776
101307.2079
101315.8501
101311.1929
101313.7541
101321.3601
101327.295
101324.5776
101315.2974
101310.1543
101310.4371
101307.5337
101302.6087
101301.7112
101302.3035
101300.7113
101299.6593
101297.0056
101298.3041
101304.4371
101304.7848
101302.4156
101310.3446
101312.6037
101315.4244
101315.7212
101319.4568
101321.6616
101318.5429
101312.9071
101309.9221
101308.1626
101306.4652
101305.6187
101302.5971
101297.5787
101297.2069
101297.9352
101300.0369
101302.3304
101302.091
101296.3453
101303.9066
101315.1428
101319.6168
101311.7318
101311.167
101317.7063
101321.4194
101316.6091
101308.4953
101306.6282
101308.8174
101309.2157
101303.9453
101296.7434
101296.5478
101298.4994
101298.7822
101297.1828
101298.4885
101293.1979
101300.9965
101314.9464
101320.7237
101310.1065
101307.401
101315.8399
101322.8694
101317.2422
101305.9051
101304.0636
101309.5541
101311.572
101305.7563
101298.8175
101298.0389
101298.4065
101295.8699
101294.634
101297.3312
101295.0263
101303.6069
101312.3421
101316.5272
101310.2245
101309.2517
101316.8726
101322.0951
101315.2014
101304.505
101303.4777
101309.3309
101311.6123
101306.9999
101302.4105
101300.5318
101298.3965
101295.3666
101296.4643
101298.4916
101299.9293
101308.3259
101307.862
101308.8542
101311.0093
101314.4739
101318.3021
101317.7126
101311.072
101305.6607
101305.9485
101308.993
101309.4999
101307.1223
101305.1508
101302.4235
101298.1482
101298.0052
101300.778
101299.2351
101303.155
101311.2174
101303.6772
101302.8807
101312.0967
101318.3505
101316.9713
101311.0123
101308.3217
101309.567
101310.2325
101308.5049
101306.5421
101306.1067
101306.2294
101302.8406
101299.5057
101301.6012
101302.5865
101298.8426
101302.7687
101308.8783
101300.8257
101300.9868
101313.2842
101318.7348
101311.9444
101304.4287
101307.3253
101313.5614
101313.2429
101307.3908
101303.5906
101304.4
101305.2381
101302.0225
101300.8011
101302.9875
101300.8929
101298.0562
101299.59
101303.6386
101300.5981
101303.4309
101313.5072
101315.4352
101305.9138
101300.0977
101307.0693
101314.9435
101313.4003
101305.5725
101301.778
101302.9334
101303.4856
101301.1407
101302.3048
101302.1386
101297.8191
101298.5957
101298.4143
101299.8019
101301.4336
101307.4057
101311.9744
101310.0127
101302.1146
101299.1656
101305.7795
101312.8634
101310.4561
101303.4565
101300.7889
101301.7712
101302.194
101301.0048
101303.5119
101300.634
101296.4107
101300.7303
101300.6837
101299.0173
101302.6262
101310.4103
101308.5656
101304.2858
101301.3359
101301.0544
101304.4978
101308.498
101306.9224
101301.863
101300.3851
101301.0113
101301.455
101301.4345
101303.7438
101299.726
101297.6334
101302.1335
101304.4828
101300.2139
101303.3887
101310.8474
101304.5839
101299.8022
101302.2553
101303.5096
101303.6275
101304.6451
101304.1864
101301.4134
101300.0415
101300.2721
101300.9465
101301.7487
101302.1449
101299.9406
101299.6919
101303.4955
101306.4403
101301.5867
101303.3421
101309.1996
101301.4628
101297.5274
101303.0508
101304.7838
101302.8348
101301.6428
101302.5519
101301.4087
101299.9757
101300.0618
101301.0145
101301.3434
101299.1971
101299.8298
101300.5121
101301.3392
101304.1921
101300.0382
101301.5272
101302.7752
101299.8697
101299.5965
101301.6645
101302.166
101301.7345
101300.3813
101300.7046
101300.8754
101300.0508
101299.6891
101300.3661
101300.3581
101294.6336
101293.2251
101319.2147
101324.8951
101314.4231
101323.9476
101327.7715
101329.7451
101320.6217
101320.2042
101321.2956
101316.6207
101306.9724
101296.7424
101291.2927
101292.4152
101298.1201
101300.7983
101297.0951
101297.1703
101298.1684
101302.227
101308.9716
101312.9938
101315.6681
101323.321
101322.0179
101328.0178
101326.3928
101321.4359
101314.4674
101312.9769
101311.2965
101301.5872
101293.1737
101292.332
101295.7231
101297.7572
101295.9633
101296.9829
101304.7521
101317.2314
101304.1721
101305.5316
101314.7849
101320.5081
101317.1758
101327.7609
101332.7943
101324.0356
101309.6626
101309.3456
101312.6282
101305.9568
101296.833
101292.6634
101292.3546
101293.8811
101295.5539
101297.7305
101310.4001
101329.1542
101305.8754
101306.3079
101312.4199
101317.455
101316.2648
101328.6819
101334.8105
101326.4713
101310.4277
101307.0794
101309.1436
101307.0223
101300.7319
101293.6711
101289.4336
101291.6571
101296.7123
101299.9947
101306.3391
101318.3997
101305.3614
101308.7012
101310.8085
101317.9754
101316.653
101323.862
101328.7858
101330.8255
101319.2293
101306.8228
101301.4606
101305.2158
101305.3011
101295.6295
101288.2635
101291.975
101300.3465
101302.9306
101293.4126
101292.492
101300.238
101308.7033
101310.5926
101321.2301
101317.515
101313.4739
101316.9509
101333.0024
101331.2562
101309.2041
101294.9903
101303.6276
101308.9516
101298.0973
101289.4819
101294.5525
101303.5512
101304.5684
101287.3536
101280.5518
101298.3286
101307.5357
101309.624
101320.7365
101317.199
101308.7168
101309.1558
101329.5735
101334.2392
101313.8058
101297.032
101304.632
101309.5961
101300.3249
101293.5897
101298.0326
101303.5572
101303.2997
101293.5707
101292.102
101299.9219
101304.6043
101307.1101
101314.735
101314.91
101312.5305
101310.2313
101319.9026
101324.3171
101316.4066
101306.8598
101308.116
101307.3062
101301.75
101299.6356
101301.1914
101300.3302
101299.4389
101304.2212
101311.478
101301.4307
101299.9945
101301.4872
101306.0163
101312.9579
101320.5237
101316.0093
101310.2342
101310.3321
101316.942
101318.2011
101311.0228
101302.2365
101301.4096
101305.0013
101303.6085
101297.0674
101296.0935
101309.1549
101319.9623
101299.8276
101294.965
101297.0932
101302.1212
101311.9318
101324.6792
101320.1946
101305.2009
101302.1042
101318.2962
101324.7657
101309.913
101295.9432
101298.9665
101306.8861
101305.4664
101297.0836
101295.9305
101305.4828
101310.2711
101298.3216
101293.7512
101296.9858
101306.7008
101312.4899
101321.2875
101317.8475
101305.3166
101303.3021
101319.7084
101322.713
101306.8215
101293.3333
101296.2822
101305.2231
101306.7652
101301.2868
101299.2085
101296.5399
101294.4799
101299.6233
101296.2499
101300.6035
101314.5381
101313.5451
101311.8976
101310.5496
101309.7049
101311.7919
101317.1989
101313.7633
101304.0117
101296.0439
101296.3189
101302.3503
101307.1744
101307.1316
101303.0385
101290.2662
101287.7251
101305.378
101300.7409
101303.2057
101317.4728
101312.6637
101303.1051
101303.9837
101315.429
101319.0976
101310.21
101303.2536
101303.8001
101303.7974
101299.9497
101300.5416
101306.0713
101309.8578
101304.2286
101292.949
101292.9399
101309.187
101305.5417
101302.7376
101312.3317
101309.1656
101299.9541
101303.0061
101320.1923
101321.8298
101302.4313
101294.4781
101305.4273
101312.1778
101305.4242
101299.7975
101303.1043
101306.8834
101302.0732
101300.484
101302.2019
101308.9981
101308.6643
101299.5141
101303.7427
101306.5066
101302.678
101306.4822
101320.8396
101318.6455
101297.9092
101291.6318
101306.7648
101315.9016
101309.0817
101300.2044
101298.9472
101299.6819
101298.2422
101306.3671
101307.5097
101305.3397
101309.5152
101299.9854
101298.6983
101304.5518
101308.7353
101310.6066
101315.2589
101311.1622
101298.2834
101295.4375
101306.3688
101312.6256
101308.1788
101300.8892
101295.9232
101293.1495
101295.678
101307.7755
101306.2306
101300.5048
101307.7845
101305.6858
101299.1133
101302.0635
101313.8241
101311.3747
101304.9574
101302.3335
101303.2471
101304.1183
101302.8836
101303.0639
101303.6083
101301.7343
101296.4778
101291.7898
101296.3057
101304.446
101300.9102
101296.6751
101301.7052
101311.8617
101301.7053
101298.2665
101313.2269
101309.4043
101294.9275
101292.9736
101307.0249
101312.7601
101300.8995
101293.9726
101298.4601
101302.8898
101300.0213
101295.0533
101298.9925
101299.4246
101298.985
101295.4626
101296.3999
101313.599
101303.8378
101296.5491
101309.9179
101305.2095
101288.9002
101290.1998
101309.3922
101314.7633
101300.022
101291.3125
101295.3468
101302.7497
101303.5637
101300.1956
101300.989
101296.1256
101300.2108
101297.3517
101300.6644
101307.5797
101299.1643
101298.3287
101305.4902
101300.894
101294.3539
101295.4034
101305.1934
101307.9307
101298.9672
101294.8748
101297.8311
101300.8711
101302.1042
101301.9048
101300.7541
101302.4197
101309.1433
101318.0514
101310.558
101315.261
101324.9042
101329.0853
101336.0813
101327.2825
101308.0485
101304.6459
101320.1243
101315.4612
101289.1474
101274.2104
101277.5891
101291.2445
101301.3327
101300.6789
101298.9318
101299.8685
101304.3097
101304.5193
101300.6626
101316.0862
101327.7999
101324.5432
101327.1146
101325.2644
101321.0167
101312.228
101314.6972
101313.1067
101303.4664
101290.6687
101285.3641
101289.2921
101295.1284
101295.6181
101296.6636
101302.4785
101309.186
101304.401
101303.1923
101316.3786
101324.227
101318.1279
101319.8606
101324.6414
101333.6812
101316.9208
101303.6889
101304.4545
101312.5938
101305.5579
101293.6513
101287.4218
101288.2867
101290.2141
101294.9875
101307.5718
101322.572
101317.4763
101316.9613
101315.4487
101314.7412
101312.8053
101319.2979
101324.9838
101336.5831
101319.4852
101292.9837
101293.9102
101309.3767
101310.297
101298.9906
101286.4605
101283.2613
101287.0029
101294.6976
101303.144
101310.9244
101322.8069
101326.406
101311.208
101309.2372
101317.6821
101321.6064
101316.4039
101328.1159
101324.6036
101297.4384
101288.9122
101298.0249
101305.2826
101300.5015
101286.9856
101282.9528
101289.8825
101297.5241
101290.3946
101282.0233
101311.0044
101323.5731
101305.3291
101309.706
101330.639
101324.5172
101304.1899
101312.0117
101327.422
101318.0772
101296.509
101288.0476
101296.7206
101298.5553
101289.0155
101287.7272
101297.4492
101302.8846
101285.2045
101269.9675
101297.291
101312.9279
101305.2707
101311.3044
101333.7998
101324.779
101301.2227
101303.6257
101327.5578
101330.0682
101305.5682
101287.1348
101292.3084
101297.7957
101292.7957
101293.6627
101302.8933
101305.8286
101293.3104
101287.2542
101292.041
101303.2402
101311.2979
101311.7252
101320.891
101322.2571
101308.0986
101305.4942
101319.9712
101323.5511
101307.5395
101293.5491
101293.2661
101298.6944
101297.2676
101298.0303
101302.935
101304.3176
101310.8466
101319.7731
101295.8149
101298.0148
101314.5713
101308.1493
101305.3828
101322.194
101324.3885
101312.1418
101304.1009
101310.7928
101312.6344
101303.5755
101296.7681
101298.8245
101298.4876
101298.9371
101300.0003
101300.2018
101319.7198
101338.7619
101303.008
101295.2397
101311.2115
101305.2802
101299.0568
101323.5026
101338.1074
101314.342
101288.5627
101302.6158
101320.1429
101313.4111
101298.3483
101295.6972
101295.6935
101297.4165
101297.2589
101297.799
101312.3083
101324.5336
101305.3151
101294.1575
101306.0762
101307.5134
101303.981
101323.3216
101335.3721
101310.9624
101287.0378
101303.1805
101321.6789
101315.3351
101297.7675
101291.0293
101292.157
101297.1486
101298.9556
101299.5483
101294.4209
101295.0823
101302.782
101295.6521
101302.0289
101311.2432
101315.6527
101321.4079
101317.0498
101304.9451
101298.5709
101308.7676
101312.616
101307.4048
101294.928
101288.3
101291.1037
101299.156
101304.5571
101304.1426
101283.8389
101278.3376
101305.2629
101301.694
101298.6846
101310.8214
101326.9585
101318.1654
101295.9464
101299.4944
101314.1625
101312.5589
101301.1639
101297.9255
101295.3193
101290.7331
101293.2832
101301.1171
101308.3929
101306.2838
101287.9544
101283.2886
101310.0584
101311.62
101297.9162
101306.0456
101327.2267
101314.9545
101286.9788
101300.2809
101323.8074
101310.8504
101291.9694
101292.4531
101299.229
101297.4448
101296.8184
101300.623
101305.9039
101303.3731
101302.3017
101301.6112
101313.8772
101319.4761
101299.7383
101299.8538
101319.5081
101313.5923
101294.2636
101307.1504
101324.1758
101307.5024
101289.1051
101291.9749
101303.4514
101304.2559
101300.1531
101297.4307
101297.3839
101296.9486
101311.4659
101314.4024
101314.2033
101319.1686
101303.9016
101300.0591
101310.4245
101310.6371
101304.9309
101312.1707
101316.9609
101305.697
101293.4823
101294.8614
101303.5522
101306.2296
101301.5706
101293.8417
101288.3984
101290.877
101308.8518
101312.9807
101309.3728
101310.3491
101310.1114
101307.9495
101302.5904
101305.4086
101309.8844
101311.1791
101306.741
101305.2269
101302.4122
101297.8658
101298.4703
101302.5852
101302.5929
101295.2577
101285.2336
101289.2702
101298.1886
101299.4025
101299.0157
101294.2951
101315.2186
101315.2866
101292.1989
101294.8692
101310.4731
101306.048
101294.1236
101303.324
101310.0824
101298.9413
101291.1552
101297.1461
101304.2086
101300.8739
101288.7054
101292.1607
101289.9102
101293.3391
101291.9719
101281.279
101315.8247
101318.8803
101288.6763
101287.9717
101307.9074
101301.9422
101288.5565
101301.2553
101311.9108
101298.9868
101288.9977
101294.22
101304.3426
101306.0873
101295.9955
101296.6654
101290.9503
101299.5406
101294.4836
101294.6554
101307.9414
101303.0795
101294.2715
101299.3124
101302.8103
101298.9453
101294.3392
101301.5794
101305.9845
101298.9066
101293.6777
101296.8222
101302.4799
101304.738
101300.9747
101299.4764
101312.0315
101334.8789
101309.8479
101310.0031
101320.4049
101317.8584
101321.9342
101334.243
101318.4243
101304.089
101305.3496
101307.4613
101286.6283
101285.3557
101301.8233
101285.6263
101273.5486
101278.7359
101294.0218
101301.1017
101299.1297
101308.2877
101299.3774
101300.3573
101317.0469
101330.7361
101327.5915
101317.6575
101317.4169
101333.9508
101323.7424
101294.1617
101278.09
101293.7194
101298.8208
101286.1216
101275.899
101283.9681
101295.3359
101300.5125
101291.9157
101292.7215
101302.4055
101305.8182
101316.0298
101329.9778
101325.5957
101310.2102
101318.8871
101342.6569
101322.1548
101292.3813
101288.2066
101298.6584
101288.72
101286.2915
101281.6201
101287.3098
101292.8286
101297.6947
101293.8601
101303.5236
101320.747
101321.7017
101315.7812
101315.2002
101312.278
101312.7639
101319.7196
101318.627
101297.883
101302.9283
101312.5246
101298.6733
101279.5378
101286.9763
101289.0483
101287.8516
101285.9401
101292.2807
101295.0456
101307.7072
101333.2578
101334.0079
101306.24
101296.1923
101316.2612
101333.3497
101315.2593
101290.1635
101281.138
101318.4581
101328.7889
101289.8413
101267.9633
101289.3373
101296.7206
101286.984
101279.4528
101289.0036
101296.4597
101298.2462
101326.6244
101331.1634
101293.4722
101285.8966
101336.1786
101362.4168
101312.9835
101274.7498
101287.7685
101333.8219
101330.7564
101275.4246
101257.3756
101290.893
101300.8013
101287.6697
101279.8429
101291.6748
101294.3905
101286.5093
101301.8185
101313.9686
101297.3406
101292.9067
101338.0343
101368.0193
101321.6806
101276.2324
101310.85
101340.5675
101322.233
101267.2521
101254.5311
101292.3157
101300.8533
101290.316
101287.912
101298.5374
101294.3208
101286.4564
101278.132
101299.6027
101316.5147
101311.4042
101315.7927
101344.715
101336.4026
101294.3797
101287.4217
101323.349
101304.651
101267.1189
101261.5923
101294.677
101299.4431
101293.5968
101296.8092
101303.9711
101305.5477
101305.946
101280.2298
101297.203
101332.8438
101323.5025
101286.2637
101311.5707
101347.4128
101326.6616
101286.7505
101284.2992
101291.5609
101278.7071
101275.9879
101297.5098
101296.4923
101293.8732
101299.8893
101304.9042
101316.2117
101330.6741
101301.126
101303.1233
101332.3835
101322.5868
101270.8545
101290.4896
101353.772
101354.904
101283.3324
101269.7361
101294.8554
101297.9565
101291.7393
101297.7251
101291.6651
101290.4433
101297.546
101302.7006
101310.9196
101328.6101
101314.162
101304.7273
101320.7987
101315.4531
101279.0026
101293.2396
101341.7832
101343.9171
101296.33
101276.3857
101301.8001
101314.3259
101301.774
101295.4674
101285.5819
101285.9261
101294.9907
101301.2943
101295.7189
101304.8111
101306.1418
101302.1827
101307.9129
101306.0773
101301.7571
101314.724
101324.4179
101316.1083
101296.5447
101287.4268
101306.1327
101316.9208
101302.445
101291.3791
101281.9127
101283.6253
101294.6721
101302.9695
101287.3698
101288.1723
101296.211
101303.5758
101297.8814
101297.7138
101325.2619
101341.6361
101315.7175
101289.5834
101287.9129
101302.3775
101308.6273
101305.088
101293.2764
101287.5037
101282.8498
101284.5397
101295.7724
101304.8163
101291.1446
101289.6292
101297.2092
101310.2306
101299.4364
101293.4325
101327.5075
101354.7081
101311.2382
101270.3118
101285.0808
101317.9636
101309.4766
101283.8917
101279.6407
101288.1339
101289.1171
101287.3454
101294.8236
101303.4249
101306.6848
101309.7913
101306.0414
101318.9513
101313.0878
101291.1658
101314.8531
101347.6805
101308.5029
101266.0037
101289.7702
101325.6974
101305.5473
101269.4568
101275.9474
101293.7314
101297.4821
101290.9529
101291.8291
101298.5122
101313.2198
101324.6637
101318.2014
101317.837
101317.3524
101296.8493
101306.3632
101319.1373
101297.2815
101281.7145
101304.0863
101322.1307
101297.7841
101271.6684
101282.9861
101299.0613
101303.2774
101294.8052
101289.9432
101292.804
101300.6652
101321.2532
101323.8378
101307.8811
101308.995
101316.0643
101308.6212
101285.0228
101286.9241
101312.9493
101317.087
101305.2711
101293.283
101290.0495
101293.0309
101295.8322
101301.0963
101299.543
101292.8804
101290.9876
101281.7085
101294.7033
101312.5483
101289.8817
101300.5759
101336.5228
101309.4401
101257.0128
101288.5305
101343.9838
101318.9211
101279.8357
101292.5678
101312.66
101299.4177
101286.4475
101293.168
101304.0244
101299.2134
101293.1327
101274.1983
101281.4139
101298.923
101276.757
101294.827
101346.0634
101307.0487
101249.6171
101297.9606
101353.8569
101310.7156
101266.1401
101295.3012
101323.7225
101302.2681
101282.6882
101289.2371
101304.822
101303.7504
101296.9949
101288.5326
101295.9943
101297.1908
101288.4864
101297.3066
101313.1148
101301.4572
101284.6953
101300.8404
101316.2997
101301.6553
101287.3576
101298.58
101312.2517
101302.4497
101289.8828
101290.5709
101303.5587
101304.5384
101299.7663
101314.0989
101329.1497
101303.421
101320.928
101324.3834
101301.0533
101308.7118
101320.6537
101337.4647
101332.5331
101286.0433
101270.0353
101288.4509
101302.509
101299.1265
101286.5651
101262.7337
101260.899
101280.4017
101297.3777
101301.9526
101306.2702
101309.208
101321.6961
101316.5027
101310.0694
101329.1555
101323.782
101306.7987
101315.9956
101306.4194
101278.9401
101265.9722
101277.0469
101287.8397
101284.7298
101273.7926
101272.7794
101286.5878
101301.0827
101290.1971
101284.1294
101308.6848
101320.4308
101318.2062
101317.3162
101331.0263
101325.4983
101288.5716
101299.4828
101325.2645