/*--------------------------------*- C++ -*----------------------------------*\
| =========                 |                                                 |
| \\      /  F ield         | OpenFOAM: The Open Source CFD Toolbox           |
|  \\    /   O peration     | Version:  5.x                                   |
|   \\  /    A nd           | Web:      www.OpenFOAM.org                      |
|    \\/     M anipulation  |                                                 |
\*---------------------------------------------------------------------------*/
FoamFile
{
    version     2.0;
    format      ascii;
    class       volScalarField;
    location    "4.4";
    object      p;
}
// * * * * * * * * * * * * * * * * * * * * * * * * * * * * * * * * * * * * * //

dimensions      [1 -1 -2 0 0 0 0];

internalField   nonuniform List<scalar> 
30538
(
101294.5624
101284.8846
101267.0085
101244.6925
101228.7069
101221.1371
101221.3301
101229.2059
101250.0798
101276.2989
101301.8704
101323.1329
101341.7473
101357.4765
101381.98
101414.2174
101412.6725
101375.5463
101324.2701
101294.0859
101292.9313
101281.3975
101263.0186
101243.3418
101229.3276
101220.2612
101217.9648
101224.5215
101244.7515
101272.2452
101300.8748
101325.0366
101342.8726
101356.5739
101378.1428
101405.1173
101404.5804
101373.7288
101329.8036
101300.799
101290.1394
101276.0403
101260.5924
101244.8199
101231.8304
101220.9424
101217.4058
101223.3202
101242.1446
101268.8628
101297.9743
101323.3576
101340.6597
101353.7709
101372.8926
101392.1992
101393.5183
101372.1594
101338.9066
101310.5621
101286.9615
101270.682
101261.4885
101250.6436
101236.7293
101224.9173
101223.2056
101230.3317
101246.6241
101268.4913
101293.565
101317.3955
101334.6264
101349.5724
101367.4752
101380.9189
101383.3743
101370.9251
101347.9265
101319.7199
101286.3063
101269.2125
101264.8534
101256.9441
101242.3405
101231.9782
101234.8335
101244.334
101256.3528
101269.4665
101286.5765
101307.3679
101326.5417
101346.0302
101363.2387
101370.57
101372.5171
101368.1827
101354.4002
101325.599
101289.7049
101274.2287
101266.9481
101258.0227
101247.3077
101241.7563
101247.7053
101257.2649
101263.3694
101267.7842
101278.4219
101298.2506
101321.9503
101345.6051
101359.3652
101360.5997
101359.9058
101362.418
101357.0247
101327.7282
101296.7836
101284.6257
101265.0376
101252.2416
101251.692
101252.2617
101256.9661
101262.3349
101262.3261
101261.841
101270.3076
101292.4578
101323.1481
101348.1998
101355.059
101348.4553
101345.9061
101354.0246
101355.0694
101325.8113
101304.437
101296.4277
101260.5286
101244.9591
101256.0603
101262.0317
101261.1525
101259.5329
101255.9361
101255.2464
101265.8099
101291.5053
101326.2532
101348.72
101348.5041
101338.5251
101335.5699
101346.1471
101348.9618
101320.7636
101307.7763
101302.2859
101259.7945
101243.9247
101260.5505
101268.5397
101262.8303
101257.0858
101253.076
101254.8666
101266.9578
101291.968
101323.5441
101342.129
101340.657
101334.6461
101334.6207
101342.7353
101340.8245
101314.6101
101304.9101
101298.8174
101264.9851
101252.2713
101265.0592
101270.3723
101264.0722
101259.9892
101259.6035
101263.3204
101273.4585
101292.3981
101314.4745
101328.6608
101333.0824
101337.4202
101342.799
101344.7205
101333.3823
101309.6126
101297.6019
101289.8138
101274.7427
101267.3589
101269.0164
101267.6241
101264.8702
101266.7623
101271.0793
101275.0812
101281.3783
101291.7618
101303.5274
101315.2234
101327.519
101342.6196
101351.962
101348.2155
101329.3372
101307.5416
101291.2328
101283.1117
101284.7734
101282.3905
101272.1986
101263.4182
101263.9396
101270.8709
101278.2577
101282.842
101287.5327
101293.5134
101300.0449
101309.9613
101325.8051
101343.6935
101353.3867
101347.2797
101327.3293
101307.7758
101289.5438
101282.3327
101293.5373
101292.925
101274.158
101260.1801
101262.73
101270.4604
101277.753
101283.9385
101291.1316
101298.3668
101304.8804
101313.8716
101327.3077
101340.5228
101346.7719
101339.4382
101322.3048
101307.6533
101292.33
101287.7685
101299.4986
101297.1456
101275.0898
101260.5192
101263.7784
101268.6249
101272.7367
101282.1531
101293.5565
101304.1579
101312.9029
101321.7222
101330.9271
101335.532
101335.7215
101327.3101
101313.0267
101305.0929
101296.8635
101295.6759
101302.338
101296.4982
101275.897
101264.5726
101267.9956
101269.0365
101270.6772
101282.3819
101295.7265
101306.7959
101316.5266
101325.6877
101333.7039
101333.6525
101328.1647
101316.2986
101302.3362
101300.3503
101299.5976
101300.7845
101302.374
101293.9033
101278.4098
101271.6744
101273.7287
101272.5571
101276.1155
101288.5495
101299.2136
101306.1873
101312.5592
101322.3551
101332.6127
101334.2527
101326.7688
101311.3191
101295.2461
101295.8961
101299.8763
101302.1655
101300.4499
101292.5741
101284.0882
101279.6468
101278.083
101277.7964
101286.3973
101298.5996
101303.6565
101303.3439
101304.4919
101313.2957
101326.7061
101334.6373
101328.7234
101311.8984
101294.3859
101293.6746
101298.9362
101301.259
101298.0455
101293.2136
101291.6941
101287.4149
101280.6797
101281.7015
101294.9775
101306.0165
101307.275
101302.7809
101299.7192
101305.5632
101318.1685
101330.0165
101327.6902
101313.3415
101297.7154
101294.3198
101299.2539
101300.2694
101296.4616
101295.1903
101298.2829
101293.9617
101284.0703
101285.6415
101298.9703
101308.4214
101308.2067
101304.0316
101300.1092
101301.2875
101308.5492
101317.8446
101318.4098
101311.1968
101302.3414
101297.1253
101299.7619
101298.8066
101297.5951
101299.3972
101300.9444
101297.3078
101292.7173
101294.9356
101301.1459
101305.1715
101304.3434
101301.502
101299.8598
101299.1036
101301.435
101306.1726
101306.322
101305.1977
101302.7367
101299.0778
101292.6226
101280.0572
101264.4009
101247.5555
101236.4348
101230.2729
101232.165
101241.528
101259.8763
101282.6899
101307.1145
101330.1648
101352.3805
101372.4281
101386.5028
101393.2187
101385.1823
101367.4914
101344.2479
101314.7882
101292.9941
101280.6066
101263.9535
101247.8312
101238.1424
101231.9406
101232.4379
101239.8083
101256.9903
101279.9993
101305.4229
101329.4408
101351.0806
101369.8843
101384.4057
101392.4955
101384.9486
101365.867
101340.9855
101313.3596
101292.4753
101280.0906
101264.3486
101250.1068
101241.5925
101235.0271
101234.3629
101240.0911
101255.6984
101277.8059
101302.9245
101326.7054
101346.9266
101364.1858
101379.8456
101389.9618
101383.8322
101363.8314
101336.9825
101311.0305
101290.7241
101277.9039
101265.4802
101254.2716
101245.9777
101239.2347
101238.6835
101244.1458
101258.1642
101277.7042
101300.3912
101322.3259
101340.8403
101356.6699
101373.0104
101385.1371
101381.0951
101361.8234
101334.6283
101309.6475
101289.3402
101275.8754
101267.2499
101258.4742
101250.0684
101243.7864
101244.7546
101251.227
101263.697
101279.0358
101297.1997
101316.1753
101333.5003
101349.0865
101364.8283
101376.9016
101375.2803
101359.3578
101334.6607
101310.255
101289.9172
101276.3546
101268.4656
101260.7991
101253.0746
101248.6413
101251.7818
101258.6717
101268.515
101278.7592
101292.6947
101309.878
101327.6534
101343.8863
101357.4203
101366.5983
101366.3126
101355.5682
101335.7429
101312.2513
101292.6984
101279.6924
101268.6131
101260.0346
101255.8441
101254.3401
101258.3358
101263.7317
101269.726
101275.6253
101286.78
101303.6238
101323.8168
101341.4366
101352.3579
101356.7222
101355.9427
101350.1205
101335.6491
101313.651
101295.9584
101284.3239
101268.1137
101258.7058
101259.5163
101260.9098
101264.2231
101266.2396
101267.8718
101271.5377
101281.3751
101298.5186
101320.9554
101340.1367
101349.4548
101350.2777
101348.0112
101344.3991
101333.1509
101312.7707
101297.3756
101286.9768
101268.962
101260.2153
101264.1426
101266.8476
101268.183
101267.5593
101267.2509
101270.4455
101279.2135
101294.8129
101316.2601
101336.2888
101346.7812
101347.9362
101344.8018
101340.1313
101328.9611
101310.0706
101296.5673
101286.639
101271.7768
101265.1326
101268.7526
101269.8664
101269.1352
101268.9492
101270.5439
101274.1425
101281.3473
101293.245
101310.4748
101329.4038
101342.4063
101347.5391
101345.2423
101338.2978
101324.8167
101307.2991
101294.7145
101285.803
101276.4819
101272.1035
101272.4491
101269.2942
101267.6505
101270.4678
101276.0184
101280.7198
101285.633
101292.9775
101305.3471
101321.9913
101336.7478
101346.0162
101345.5158
101337.4991
101322.6799
101306.1849
101293.9122
101286.7427
101282.0276
101278.6472
101274.8928
101267.7019
101265.8471
101270.9184
101279.1908
101284.9841
101289.4888
101294.8548
101304.4212
101318.2776
101332.3509
101342.2621
101342.5288
101335.1391
101321.59
101306.4629
101294.6812
101289.2932
101287.4635
101283.6173
101276.0924
101267.4975
101266.4657
101271.0076
101278.7144
101285.6368
101291.6769
101297.8937
101307.1726
101319.2218
101330.7994
101337.9388
101336.7853
101330.6655
101319.6371
101306.5667
101296.4167
101292.9132
101291.8566
101286.5466
101276.7021
101269.5286
101269.8272
101271.8152
101276.9654
101285.049
101293.297
101301.516
101311.4242
101322.0463
101331.0357
101334.3193
101330.9013
101325.0518
101315.9502
101305.5518
101298.1596
101296.2895
101295.0006
101287.9057
101277.3739
101272.5102
101274.2683
101274.091
101277.0863
101285.7804
101295.4633
101304.1496
101313.1834
101322.3461
101329.9701
101331.4514
101327.0982
101320.608
101312.0623
101303.7529
101299.3643
101298.9999
101296.4811
101288.5338
101279.2794
101276.2626
101277.7796
101277.0729
101280.4394
101289.3822
101298.6891
101306.0497
101312.0739
101318.8936
101325.3269
101327.6407
101324.7267
101318.1168
101309.8901
101302.6933
101300.2876
101300.7797
101296.3816
101288.7737
101283.478
101281.0133
101280.2959
101280.3611
101285.7155
101294.1642
101301.894
101306.8268
101309.3143
101312.4919
101317.5058
101321.5846
101321.6052
101316.8803
101309.7278
101302.9598
101300.7983
101301.6763
101295.4542
101289.7138
101289.1353
101287.1634
101283.6101
101283.7967
101289.9825
101297.4559
101303.6595
101307.1882
101307.4825
101307.6243
101309.8325
101313.9119
101316.0624
101314.5618
101309.8868
101303.7559
101301.3567
101301.7728
101295.4364
101292.2568
101294.9989
101293.6067
101288.3388
101288.3285
101293.1289
101299.0458
101303.7676
101306.4112
101306.2199
101304.4836
101304.1682
101306.189
101309.0839
101309.7733
101307.9602
101303.664
101300.9484
101300.1189
101297.5555
101297.5796
101299.1735
101297.8287
101295.0767
101295.334
101297.7101
101300.2912
101301.9956
101302.8477
101302.7783
101301.3856
101300.5309
101301.1798
101302.2893
101303.6243
101303.644
101301.7317
101290.5562
101275.4612
101264.2422
101255.0144
101248.7807
101243.3168
101246.8022
101257.9046
101274.2125
101292.8071
101314.1848
101336.6577
101358.7734
101378.0751
101383.0861
101371.6322
101359.5981
101356.5524
101354.6314
101328.3021
101292.6881
101279.4996
101267.1438
101256.184
101250.7199
101247.2075
101251.4074
101260.3326
101274.1645
101291.4623
101312.1906
101334.0472
101355.5179
101374.5374
101382.3743
101376.5113
101364.8635
101355.6861
101346.5391
101321.789
101294.6434
101283.5972
101269.2048
101257.2897
101254.0586
101253.0921
101256.8611
101262.7718
101274.1892
101290.1432
101310.0476
101330.8248
101350.8136
101368.2609
101379.085
101380.7315
101370.2638
101353.757
101334.8345
101312.2255
101295.2534
101284.8513
101269.1607
101257.8951
101257.5
101258.3453
101260.3163
101263.8929
101274.1759
101289.5681
101308.7753
101328.1626
101345.7979
101360.3981
101372.3224
101380.0013
101371.9315
101350.6168
101324.6836
101304.2022
101293.9483
101282.8574
101268.6382
101259.3585
101260.2915
101260.9531
101260.6998
101263.6046
101274.4184
101290.1831
101308.278
101325.6501
101340.5767
101351.743
101362.9499
101374.137
101368.9775
101347.4023
101318.869
101300.0013
101291.9416
101279.4792
101269.7799
101263.2091
101262.4
101260.8223
101260.3688
101264.1354
101275.9672
101291.096
101306.8695
101321.327
101334.0128
101344.0441
101354.6828
101366.2495
101363.5931
101344.4406
101317.3268
101299.8615
101289.8717
101275.7922
101272.7767
101269.1402
101264.314
101260.7796
101262.8428
101268.0092
101278.9651
101291.3896
101303.4049
101314.497
101325.6689
101337.6479
101350.2343
101360.48
101358.0406
101341.3537
101317.4711
101301.7242
101288.4791
101273.363
101276.5046
101275.149
101266.6361
101262.5732
101268.9244
101275.2287
101282.5479
101290.2583
101298.2301
101306.3585
101317.1355
101333.4365
101349.7062
101358.3332
101353.7314
101337.5358
101316.6823
101302.8366
101288.1047
101273.4859
101279.0866
101278.7928
101270.0639
101266.3797
101274.2352
101280.3728
101284.4584
101288.4751
101293.654
101300.114
101311.1574
101330.542
101350.1199
101356.7426
101349.2937
101333.0081
101315.2111
101303.136
101289.7475
101277.2069
101279.8402
101279.1359
101273.481
101270.0385
101275.6148
101280.0248
101283.5646
101286.8844
101291.5234
101297.7264
101309.2969
101328.7182
101346.8391
101351.9257
101342.814
101327.7125
101313.8423
101303.4374
101293.3996
101284.2578
101279.9143
101277.0996
101275.7787
101271.9539
101272.8794
101276.1444
101281.2073
101286.2707
101292.0542
101298.5109
101310.1358
101326.5791
101340.1513
101343.1879
101334.6766
101323.0685
101313.8428
101304.7825
101297.5201
101291.7428
101280.4475
101274.7194
101276.4081
101273.7435
101271.5287
101273.2949
101279.5659
101286.2967
101293.0789
101299.8714
101311.028
101324.2736
101333.125
101334.5324
101327.7043
101320.4797
101315.2733
101306.4814
101299.666
101295.7987
101281.6804
101273.9745
101276.1962
101276.4729
101274.1827
101274.0654
101279.6197
101286.7983
101293.456
101300.1239
101310.1617
101321.2189
101328.2466
101329.6663
101324.5353
101320.641
101317.6201
101307.5439
101299.2343
101295.6675
101283.6107
101275.5744
101276.6456
101279.3795
101278.9034
101277.5178
101281.6672
101288.0047
101293.9497
101300.0013
101308.3433
101318.0616
101325.1443
101327.8771
101324.8997
101322.8501
101319.7014
101307.361
101297.8475
101294.1074
101286.166
101279.2012
101278.4703
101280.8424
101281.4628
101280.7171
101284.3852
101289.8037
101295.511
101301.0729
101307.1752
101314.5439
101321.297
101325.8769
101325.927
101324.8855
101320.7882
101307.0558
101297.9557
101294.6191
101288.7079
101282.9551
101280.9938
101281.4781
101281.6102
101282.5241
101286.2682
101291.2896
101297.911
101303.8388
101308.171
101311.6871
101315.3188
101319.6382
101322.2534
101324.1085
101320.6175
101307.3886
101300.0564
101297.606
101290.7949
101285.1968
101284.0537
101282.8751
101282.0822
101283.9096
101286.957
101291.3884
101299.225
101306.7526
101310.4361
101309.6365
101308.1455
101309.5013
101313.8682
101318.8764
101318.1555
101308.3546
101302.4439
101301.1719
101292.0939
101286.4177
101287.1226
101286.4368
101285.8247
101286.9791
101287.6179
101290.7797
101298.8247
101307.4925
101311.0796
101308.4023
101303.2859
101300.6367
101304.5711
101311.6606
101314.3742
101308.6255
101303.2297
101302.8451
101294.4774
101289.0947
101290.9066
101292.1155
101292.5725
101291.9078
101289.5703
101291.5534
101298.1708
101305.5574
101309.0449
101306.9873
101301.6483
101297.5401
101299.8933
101304.9649
101307.8805
101306.3124
101301.917
101301.3931
101297.758
101295.1527
101296.6813
101297.9128
101297.7222
101296.3655
101295.0596
101295.9602
101299.0735
101302.6255
101304.1676
101303.5267
101300.7736
101297.9903
101298.6101
101300.3559
101301.8381
101302.726
101290.8403
101275.3188
101268.5197
101264.6932
101260.6018
101254.9812
101259.6076
101271.7865
101287.0149
101301.8977
101319.1084
101337.3859
101354.4276
101367.698
101367.9968
101354.0464
101345.6352
101347.3317
101350.8364
101328.9042
101292.5597
101279.2263
101271.7562
101265.7982
101262.0501
101259.7881
101266.5078
101276.8496
101288.9674
101301.1999
101316.4223
101333.649
101350.8473
101364.9422
101368.4313
101360.0224
101351.2745
101346.4349
101342.6184
101321.545
101294.8295
101283.9627
101273.128
101264.7581
101264.0605
101266.8249
101274.55
101281.5439
101289.9901
101299.9017
101313.9139
101330.1649
101347.0308
101360.7599
101367.3753
101365.7249
101356.6265
101343.7617
101329.9781
101310.8469
101296.9655
101287.3589
101270.7972
101261.1324
101266.1056
101272.9552
101278.7571
101281.4419
101287.9888
101298.1512
101312.8642
101328.6871
101344.6271
101356.5375
101363.4556
101365.9347
101357.1296
101338.8459
101318.3943
101301.783
101297.1631
101286.5148
101268.5808
101260.1937
101268.6681
101275.8309
101276.9728
101276.6658
101283.892
101297.0777
101313.4127
101328.4368
101342.4629
101351.5923
101357.0988
101360.8841
101353.1052
101334.0995
101311.7069
101297.2918
101294.7649
101282.6256
101270.4355
101265.8875
101271.9814
101274.5949
101272.329
101272.3937
101281.8819
101297.687
101313.4308
101325.8169
101337.1868
101345.4302
101350.9428
101353.8756
101347.8699
101331.0173
101310.2871
101297.4449
101290.4279
101276.427
101276.8033
101276.8442
101274.7714
101271.3835
101271.3002
101274.3737
101285.4147
101299.7336
101311.5045
101319.6872
101327.8866
101337.8716
101346.7309
101349.9217
101344.7014
101329.4223
101311.2303
101299.5423
101286.1206
101271.5553
101284.2802
101287.2424
101275.7667
101268.626
101275.2586
101283.2028
101292.7438
101300.9652
101307.113
101311.5382
101317.7203
101331.0949
101344.7286
101349.0107
101343.2207
101327.6419
101311.6898
101301.5449
101285.0275
101271.8554
101288.1048
101290.6296
101275.8509
101268.7728
101280.0947
101290.4102
101296.6467
101299.2281
101301.8356
101305.6011
101312.1148
101327.2164
101343.2458
101347.0724
101339.2889
101323.4509
101310.9244
101302.8121
101288.493
101278.3136
101286.9343
101286.2307
101276.1914
101271.6844
101281.8603
101289.6726
101292.8872
101293.8761
101297.6631
101304.2333
101313.2588
101326.8523
101338.8821
101340.5548
101331.1814
101316.5528
101308.4531
101302.984
101294.9698
101288.2047
101283.2607
101278.5158
101276.5528
101275.6677
101280.3277
101283.3863
101284.6049
101287.958
101295.6885
101306.1424
101317.296
101326.6845
101332.0927
101330.8645
101321.2579
101310.2941
101306.6984
101303.5311
101300.5823
101296.7979
101280.339
101272.0956
101276.1602
101279.951
101280.2027
101278.9262
101279.1643
101285.0352
101295.2476
101306.4944
101317.2467
101323.7308
101325.1897
101323.402
101315.5853
101308.8686
101307.5525
101304.6357
101301.9581
101298.7081
101279.0828
101269.5179
101275.6164
101283.2367
101283.4044
101279.4177
101280.0473
101286.166
101295.1777
101303.7183
101311.4637
101317.1461
101319.4712
101320.2858
101316.3048
101313.1307
101312.4504
101306.704
101299.2231
101294.4907
101279.3259
101271.1384
101276.5475
101284.9356
101286.5952
101283.4496
101285.3623
101289.7859
101295.3071
101299.7348
101303.9497
101309.2163
101314.8901
101320.1904
101320.8943
101320.3838
101319.0425
101308.5885
101295.7708
101289.4749
101280.6937
101275.9969
101280.0207
101284.5816
101285.8101
101286.2568
101290.5769
101293.1296
101295.8504
101297.7956
101299.1999
101303.3346
101310.136
101318.84
101323.0451
101324.7313
101322.7948
101309.0648
101295.4552
101288.769
101283.2522
101281.493
101284.0877
101283.5123
101282.9081
101286.7693
101292.0777
101294.2349
101296.6901
101298.9691
101300.1566
101301.7856
101305.718
101313.4187
101318.6068
101322.7371
101321.0448
101307.7705
101298.46
101292.7262
101286.6605
101285.2494
101286.6829
101283.2825
101281.6852
101286.6265
101290.7872
101292.8418
101296.9625
101301.4902
101304.0543
101303.5231
101302.8451
101305.636
101309.9684
101314.5759
101313.4675
101305.0178
101301.6525
101297.9064
101290.1184
101287.1958
101287.4866
101285.321
101286.2539
101289.6199
101290.245
101291.2469
101295.7166
101301.7417
101305.6581
101305.1585
101301.711
101300.196
101302.0537
101306.2568
101305.0932
101302.0318
101302.3672
101300.9358
101294.7452
101289.9304
101288.8263
101290.4388
101295.2449
101295.2684
101291.3633
101291.1228
101294.5842
101299.8902
101304.4244
101305.2422
101302.1065
101299.4547
101299.8846
101301.3691
101299.3441
101299.8823
101301.2121
101301.4499
101298.3088
101294.3244
101295.2355
101297.378
101299.2341
101297.9639
101295.5872
101295.4451
101297.4213
101300.0752
101301.9401
101303.0223
101301.9841
101300.1119
101300.1862
101299.2424
101297.1866
101299.9357
101293.142
101278.9204
101273.5053
101270.569
101268.9669
101264.7287
101269.6542
101280.9598
101294.4372
101305.2927
101317.172
101329.7688
101341.5416
101349.698
101349.128
101341.842
101338.6176
101340.3198
101337.9677
101320.9111
101293.2679
101280.5861
101275.5239
101272.0379
101270.1853
101268.5983
101276.1019
101286.6516
101297.3621
101304.9862
101314.5245
101326.3121
101338.5012
101347.1658
101348.9626
101345.5977
101342.2152
101338.6876
101331.6374
101314.8761
101294.1721
101283.1965
101276.0982
101270.873
101271.1033
101274.3522
101283.9914
101292.0898
101298.8524
101303.9466
101312.4465
101323.8083
101335.9494
101344.9493
101348.7786
101348.7336
101344.2021
101334.6895
101322.4779
101306.7444
101296.1668
101286.5108
101274.1058
101266.7946
101271.7795
101279.5251
101288.6576
101292.2537
101295.7483
101301.569
101312.3729
101324.3922
101335.9451
101343.9863
101347.6016
101348.1099
101341.9341
101328.6486
101314.2086
101300.9214
101297.4674
101287.4121
101272.6769
101265.9665
101274.2939
101282.7299
101287.917
101286.704
101289.5561
101299.327
101313.3009
101325.6828
101336.3029
101343.331
101345.0478
101342.917
101335.374
101322.6485
101309.7471
101299.3132
101296.5776
101285.3513
101275.1383
101272.0873
101279.0098
101283.8808
101283.6789
101280.7922
101285.6158
101298.9186
101313.3305
101324.1337
101333.8874
101340.8718
101341.4645
101335.7532
101327.821
101318.6578
101309.7993
101301.4834
101293.5725
101282.2212
101282.2123
101282.9894
101283.6511
101282.4158
101281.474
101281.2422
101288.4907
101300.5229
101311.6547
101318.8536
101327.6795
101335.9844
101337.5039
101329.6605
101322.5609
101317.473
101313.0704
101305.5793
101290.8081
101281.2527
101290.0632
101292.3637
101285.2925
101279.1468
101282.5931
101288.339
101296.437
101302.6302
101307.652
101312.5637
101320.3536
101330.1665
101333.0045
101325.8091
101320.0389
101317.1315
101315.7889
101309.0334
101290.8485
101283.8502
101293.118
101293.6111
101283.6793
101277.5439
101285.7213
101295.3518
101301.6974
101301.87
101302.8368
101307.6769
101316.6513
101326.2773
101328.3023
101322.19
101317.3818
101314.6462
101314.9964
101309.6337
101293.8721
101288.7698
101289.7961
101287.0575
101281.5916
101279.3539
101288.0575
101295.9825
101299.0268
101296.5623
101298.335
101306.7887
101318.2731
101325.151
101323.8771
101317.7639
101313.0465
101309.3277
101309.4039
101306.2628
101298.1628
101293.0452
101284.5713
101279.5605
101280.7109
101283.7724
101288.5615
101290.3132
101289.4491
101289.5702
101296.0088
101308.6162
101320.4625
101323.7774
101319.3412
101313.5589
101308.8711
101303.9096
101302.4896
101301.9263
101300.5204
101296.0355
101281.5333
101275.2843
101280.3286
101287.4279
101289.0268
101285.8163
101282.3935
101285.7479
101295.7804
101308.5342
101317.4039
101318.8317
101314.7514
101311.8958
101309.0705
101302.9455
101298.8325
101298.9937
101299.7216
101295.5702
101281.7568
101274.7724
101279.3049
101288.0498
101289.9897
101285.3406
101283.1049
101287.0309
101296.2491
101305.0423
101309.159
101309.6626
101309.7164
101312.7202
101313.1946
101307.6897
101302.1542
101299.6166
101296.774
101292.3678
101282.8037
101276.8708
101279.3764
101286.4216
101289.7421
101288.5015
101289.5707
101291.6229
101295.9373
101299.3475
101299.3125
101300.0106
101304.98
101313.7321
101317.3478
101314.2612
101309.4559
101303.3927
101294.3329
101288.7427
101283.0304
101280.1381
101281.934
101284.177
101287.1893
101291.1517
101296.0381
101295.4847
101294.9937
101294.4241
101292.6418
101294.1327
101301.4151
101312.5914
101317.4064
101316.7055
101314.0563
101306.3985
101294.1036
101287.2196
101283.1259
101283.6593
101285.6769
101283.4322
101284.7689
101291.5676
101297.3906
101296.5962
101294.0313
101292.2508
101291.777
101294.4536
101301.0098
101310.0487
101312.9253
101313.3165
101312.8544
101305.6115
101296.1998
101289.0572
101285.7107
101287.35
101288.3523
101284.1789
101284.4398
101290.1911
101294.5442
101295.5849
101294.4993
101293.3099
101294.4678
101298.2014
101302.9406
101307.6795
101307.3208
101306.6209
101305.8086
101301.1479
101298.4381
101293.1419
101290.621
101291.5161
101289.5472
101286.5526
101288.1364
101291.3766
101292.9799
101295.2707
101295.6398
101295.008
101296.8395
101301.1354
101304.6326
101306.2209
101303.7418
101301.3787
101298.7589
101297.0884
101299.2304
101297.1608
101296.6188
101295.8064
101291.2976
101290.8361
101295.2087
101295.1071
101293.8619
101295.5987
101296.9078
101296.6793
101298.2755
101301.8158
101304.4773
101305.0991
101303.0664
101300.234
101296.5058
101296.0078
101299.2866
101300.345
101299.8853
101296.1633
101295.7221
101296.7808
101298.999
101297.8872
101297.0534
101297.9078
101298.7881
101299.0091
101299.218
101300.9801
101302.6266
101303.3365
101302.6949
101300.4483
101297.6107
101297.933
101293.9999
101282.8898
101277.1561
101272.9371
101274.3014
101275.6732
101278.3136
101283.2516
101292.7167
101302.1834
101310.4791
101317.7048
101326.6957
101334.6017
101336.9267
101334.6997
101334.1345
101332.4742
101323.5629
101309.4331
101294.3339
101283.6513
101278.0804
101274.8312
101275.534
101276.2576
101281.3806
101288.85
101297.6752
101303.3039
101308.5204
101315.3698
101324.2001
101331.6102
101334.6304
101334.5219
101334.2314
101330.3132
101319.9252
101306.3126
101295.4948
101286.2665
101279.8681
101276.4383
101275.9404
101277.0785
101285.5308
101293.8828
101300.629
101303.7838
101308.0683
101315.2832
101323.3533
101328.8804
101331.789
101333.4626
101332.8278
101326.5487
101315.4408
101303.1897
101297.1315
101290.2339
101282.1458
101277.0352
101276.2544
101278.6258
101288.4322
101294.9898
101298.6691
101301.9906
101309.4641
101318.2628
101325.1553
101328.0129
101329.2411
101330.039
101328.4662
101321.9184
101312.3942
101302.8169
101297.796
101292.0264
101283.923
101278.7747
101279.1858
101282.2088
101290.0314
101291.9558
101293.3112
101299.1586
101310.7779
101321.2334
101327.3274
101328.3858
101327.3133
101324.7836
101321.492
101317.1437
101311.6121
101304.6913
101297.0504
101290.7635
101285.7719
101282.9218
101284.8766
101287.6253
101290.1884
101288.0299
101289.1547
101297.7454
101310.9611
101320.858
101326.5548
101328.2355
101325.8578
101318.7525
101313.7986
101313.0977
101312.6601
101307.489
101296.4337
101290.5194
101290.2164
101289.7598
101290.8117
101291.734
101290.374
101287.5861
101290.0746
101298.6553
101309.9613
101315.6675
101322.5357
101325.8757
101323.8265
101313.154
101307.4079
101310.5951
101314.9837
101310.6413
101297.3736
101293.4114
101295.3073
101295.2998
101293.7106
101292.2824
101290.6857
101290.8446
101295.9609
101301.5598
101306.808
101308.6417
101317.2561
101322.9208
101321.0601
101308.728
101303.4547
101308.9363
101316.2331
101312.6052
101299.4553
101297.154
101296.533
101295.4045
101292.4969
101291.0902
101291.7542
101295.1155
101300.3751
101302.8647
101302.5698
101303.5279
101313.454
101321.0144
101317.7423
101305.0004
101300.9263
101306.4418
101314.4874
101311.502
101300.8841
101297.2561
101292.2997
101290.8661
101290.8222
101291.9628
101293.2554
101295.9432
101300.0055
101300.0316
101299.3438
101301.2738
101313.0308
101320.1167
101315.0165
101302.8445
101299.67
101302.9625
101308.3013
101306.5001
101300.4401
101293.9883
101286.3857
101286.8276
101291.1826
101295.2984
101294.5021
101292.7414
101294.1107
101296.0596
101297.9351
101303.2634
101312.5545
101317.8873
101312.3972
101302.5205
101300.3148
101300.2889
101299.9411
101299.2742
101298.4378
101290.8987
101284.5218
101286.0371
101292.025
101296.5446
101293.6243
101289.1177
101289.5036
101293.954
101298.7819
101303.7881
101309.1071
101312.2614
101309.004
101304.0416
101304.1638
101300.4631
101294.2909
101292.8121
101296.3237
101291.0611
101287.5447
101287.404
101290.9586
101294.067
101290.8785
101287.7002
101290.0793
101294.7573
101298.8768
101301.2412
101302.2015
101303.4371
101304.4218
101306.4124
101309.3324
101303.4957
101293.3865
101290.9887
101295.4666
101293.8946
101291.405
101288.7004
101288.5187
101289.3911
101287.9251
101289.9291
101295.5554
101297.6639
101297.3654
101295.9656
101294.7752
101295.6218
101300.1129
101308.3632
101312.5777
101306.6661
101296.9879
101294.4146
101295.7153
101294.7723
101292.2467
101288.4525
101287.0849
101285.8252
101286.2311
101294.0564
101302.252
101299.6169
101293.8221
101290.1036
101289.3489
101291.7334
101298.445
101308.7319
101311.8226
101306.7349
101301.038
101299.1417
101295.8449
101293.0618
101289.427
101287.9195
101287.1041
101285.3413
101288.0222
101296.8649
101303.0146
101298.3284
101290.665
101287.0915
101288.5044
101292.971
101299.9896
101308.3685
101308.2288
101304.0804
101303.8039
101302.7703
101295.7558
101290.9807
101288.5503
101289.5416
101287.9347
101287.5015
101291.9518
101296.1451
101297.4194
101294.9487
101291.2352
101288.9794
101291.1338
101296.8743
101303.594
101308.1373
101304.4499
101301.0381
101304.7004
101303.7353
101295.8003
101291.6545
101292.3301
101294.334
101290.0183
101290.4424
101295.5146
101294.6934
101291.8754
101293.6139
101295.3425
101294.0977
101294.9499
101300.3983
101306.4763
101307.5216
101302.0164
101299.6852
101304.6408
101302.8481
101296.5465
101295.138
101298.3908
101299.8741
101293.3839
101293.526
101297.7895
101294.3267
101290.2768
101295.122
101300.4146
101299.1602
101297.986
101301.4627
101306.3368
101305.8043
101301.2588
101299.9491
101303.6471
101301.6087
101298.0606
101299.3105
101300.4313
101298.1784
101296.6227
101297.4243
101299.1226
101296.7304
101295.7836
101299.0688
101301.6161
101301.0623
101299.5332
101300.5142
101302.5223
101302.3789
101300.7574
101300.833
101302.2846
101300.3668
101295.082
101287.6491
101283.4824
101280.1071
101282.39
101288.2109
101288.921
101283.7784
101285.679
101296.6678
101309.5827
101316.3295
101318.6267
101321.6323
101326.5432
101330.5174
101332.0108
101327.739
101316.1799
101303.6939
101295.9224
101288.9168
101283.9264
101282.0617
101283.1552
101284.776
101286.3243
101288.6876
101295.6134
101302.1605
101307.3902
101311.8009
101316.5088
101320.8827
101324.8679
101328.4242
101329.2306
101324.2753
101313.2432
101301.8152
101297.9395
101293.6851
101288.0202
101285.512
101283.5859
101279.9107
101283.7695
101293.1966
101303.1324