/*--------------------------------*- C++ -*----------------------------------*\
| =========                 |                                                 |
| \\      /  F ield         | OpenFOAM: The Open Source CFD Toolbox           |
|  \\    /   O peration     | Version:  5.x                                   |
|   \\  /    A nd           | Web:      www.OpenFOAM.org                      |
|    \\/     M anipulation  |                                                 |
\*---------------------------------------------------------------------------*/
FoamFile
{
    version     2.0;
    format      ascii;
    class       volScalarField;
    location    "4.4";
    object      T;
}
// * * * * * * * * * * * * * * * * * * * * * * * * * * * * * * * * * * * * * //

dimensions      [0 0 0 1 0 0 0];

internalField   nonuniform List<scalar> 
30538
(
275.5877922
273.0124098
272.9741734
272.9562068
272.9440376
272.9390711
272.9403054
272.9474125
272.9643452
272.98528
273.0053324
273.0223658
273.0373402
273.0504055
273.070095
273.0955207
273.0944555
273.0654575
273.0161788
272.4554627
275.5815456
273.0063701
272.968097
272.9522246
272.9416052
272.9354776
272.9347431
272.9407454
272.9570843
272.9788911
273.0012079
273.0204373
273.0347309
273.0461503
273.0635313
273.084894
273.0846746
273.0606087
273.0170803
272.4635785
275.5585296
273.0018021
272.9665447
272.9538086
272.9440248
272.9364572
272.9346507
272.9399975
272.95511
272.9760332
272.9985916
273.0186279
273.0324177
273.0432389
273.0586671
273.0741233
273.0754667
273.0588906
273.0240963
272.4636652
275.5434826
272.9972661
272.9677289
272.9589503
272.9485067
272.9401335
272.9395774
272.9456559
272.9585366
272.9754182
272.9946522
273.0133082
273.0269806
273.0390883
273.0535066
273.0644585
273.0668745
273.057369
273.0311179
272.4787828
275.4920285
272.9954689
272.9709075
272.964572
272.9536029
272.946275
272.9490388
272.9567101
272.9659125
272.9757643
272.9886167
273.0047584
273.0198718
273.0354595
273.0493068
273.0555717
273.057727
273.0547156
273.0362341
272.4606064
275.4664178
272.9988178
272.9731041
272.9661576
272.9582594
272.9545445
272.9594893
272.9667782
272.9711385
272.9740385
272.9816605
272.9969724
273.0155724
273.0343238
273.0456036
273.0471928
273.0473918
273.0498514
273.0385614
272.4658655
275.3861593
273.0059265
272.9721902
272.9624251
272.9624297
272.9633105
272.9670313
272.9707215
272.9700575
272.9690039
272.9748024
272.9919154
273.0159394
273.0358228
273.041796
273.0374098
273.0362315
273.0431327
273.0374984
272.4344231
275.3402558
273.0143347
272.9692115
272.957439
272.966446
272.9713752
272.9705257
272.9685128
272.9648522
272.9635071
272.9709046
272.9908366
273.0180779
273.036042
273.0366012
273.0296712
273.0281989
273.0370158
273.033316
272.4354149
275.2122119
273.017608
272.9690572
272.9571317
272.9703567
272.9767338
272.9719427
272.966521
272.9623871
272.962953
272.971621
272.9911347
273.0160282
273.0311018
273.0307502
273.0269078
273.0276907
273.0345653
273.0276649
272.4136807
275.123421
273.0138261
272.9733553
272.9638909
272.9740773
272.9782794
272.9728978
272.9686557
272.9673091
272.9694229
272.9767525
272.9917269
273.0094286
273.0212188
273.0254746
273.0296101
273.0345188
273.0365113
273.0226595
272.429859
274.9376306
273.0050878
272.9810183
272.9756501
272.9771572
272.976098
272.9733953
272.9738118
272.9762074
272.978688
272.9832758
272.9918316
273.0017588
273.0117335
273.0220917
273.0344794
273.0423466
273.0398084
273.0204179
272.4410451
274.8177348
272.9984427
272.988689
272.9871499
272.9794731
272.9726634
272.9725239
272.9769755
272.9819232
272.9850546
272.9886831
272.9940645
273.0001323
273.0088019
273.0218592
273.036263
273.044214
273.0396672
273.0196681
272.4772713
274.5977095
272.9957545
272.9952177
272.9950042
272.9807182
272.9699164
272.9714489
272.9767176
272.9817826
272.9864272
272.9922861
272.998875
273.0050557
273.0130375
273.0241373
273.0347356
273.0397816
273.0340786
273.0166158
272.5191035
274.4663846
272.9982372
272.9995022
272.9978951
272.9811163
272.9699421
272.9721777
272.9754129
272.9782263
272.985647
272.9950396
273.0043939
273.0123882
273.0202207
273.0279301
273.0316523
273.0317607
273.0250088
273.0100948
272.5568484
274.2213876
273.0022239
273.0014237
272.9970481
272.9814252
272.9728724
272.9753863
272.9758765
272.9770183
272.9864148
272.9975134
273.0073061
273.0160706
273.0240924
273.0307311
273.0306555
273.0261716
273.0165534
273.0024892
272.6183966
274.0733259
273.0046284
273.0012738
272.9948114
272.9831787
272.9782333
272.9798248
272.9787874
272.9816174
272.9916943
273.0008125
273.0073929
273.0134524
273.0218367
273.0300783
273.0311652
273.0250335
273.0125226
272.9973839
272.6607096
273.7979846
273.0040706
272.9997849
272.9937516
272.987526
272.9843741
272.9832552
272.9830394
272.9899131
272.9998542
273.0045943
273.0053668
273.0072181
273.0146869
273.0252582
273.0311587
273.0262066
273.0126113
272.9971391
272.7540844
273.634386
273.002481
272.9981438
272.9945248
272.9935309
272.9905807
272.9853844
272.9863235
272.9967841
273.0058027
273.0074173
273.0047385
273.0030814
273.0080733
273.0179362
273.0268672
273.0247409
273.0131445
272.9997791
272.8062161
273.334827
273.0090989
272.9995013
273.0137972
273.0055477
273.0173147
272.9963099
273.0066204
273.005201
273.0167302
273.009612
273.0089477
273.0022624
273.0046851
273.005633
273.0153927
273.0119373
273.0102728
273.001553
272.9173189
271.9181842
275.2758931
272.7100809
275.9369924
273.4518583
276.1230453
273.8015365
275.8225054
273.7747824
275.1956738
273.375895
274.3530902
272.7945636
273.6038175
272.3551687
273.1949544
272.2200959
273.1468803
272.3663808
273.347932
276.0945134
273.0126463
272.9723268
272.9586691
272.9500728
272.9457003
272.9477893
272.9558074
272.9707373
272.9890648
273.008354
273.026734
273.0441669
273.0599794
273.0709518
273.0762342
273.0704654
273.0571433
273.0271201
272.2582583
276.0916411
273.0096993
272.9689588
272.9559069
272.9484611
272.9440954
272.9450838
272.9514858
272.9654339
272.9838145
273.0037912
273.0228402
273.0397618
273.0545519
273.0658595
273.0722406
273.0668831
273.0524984
273.0213869
272.2488334
276.0758752
273.00881
272.9694764
272.957965
272.9514876
272.9468819
272.9469443
272.9519575
272.9645218
272.9820227
273.0015998
273.0203236
273.0360432
273.0495461
273.0617176
273.0697309
273.0655465
273.0505102
273.0183124
272.2268604
276.0609913
273.0065765
272.9706764
272.9616175
272.9553807
272.9506709
272.9507694
272.9554027
272.9665313
272.9817955
272.9992995
273.0164104
273.0307085
273.0430084
273.0557125
273.0653615
273.0628931
273.0484926
273.0166093
272.2122883
276.0121794
273.0041843
272.9724423
272.9653837
272.9591318
272.9547884
272.9559717
272.9611755
272.9708717
272.982626
272.9964198
273.0110621
273.0243657
273.0364203
273.0487122
273.0584204
273.0579051
273.046182
273.0168897
272.1809974
275.9740324
273.0038318
272.9738201
272.967755
272.9620962
272.959158
272.9618833
272.9671879
272.9745971
272.98217
272.9924944
273.0055971
273.0192393
273.0318128
273.0424979
273.0500523
273.0506095
273.0429873
273.0181986
272.1703967
275.8864636
273.0053237
272.9743676
272.9677467
272.9648695
272.9641338
272.9673522
272.971285
272.9754426
272.9794734
272.9875045
273.0002676
273.0158072
273.02954
273.0383018
273.0422366
273.0424431
273.0386505
273.0187554
272.1449332
275.8160897
273.0079127
272.9743978
272.9672752
272.9682673
272.9696866
272.9722026
272.9733039
272.9738802
272.9760396
272.9829971
272.9960166
273.0133614
273.0284189
273.0360482
273.0373175
273.0363774
273.0342615
273.0175442
272.1439755
275.6750403
273.008464
272.9754101
272.9689133
272.9722705
272.9746112
272.9754287
272.974303
272.9732256
272.9749778
272.9811551
272.9930498
273.0097369
273.0255726
273.0342141
273.0357776
273.0341548
273.0311546
273.0151057
272.136184
275.5593377
273.0068088
272.9778708
272.9730546
272.9761057
272.9771089
272.9761832
272.9752735
272.975629
272.9777117
272.9828181
272.9919893
273.0055609
273.0206527
273.0313082
273.0359666
273.0349642
273.0301236
273.0128061
272.1572957
275.359624
273.0041911
272.9816852
272.9786145
272.9790677
272.9766597
272.9748963
272.976283
272.9797584
272.9828239
272.986354
272.9922068
273.0021879
273.015608
273.027657
273.0354969
273.0358457
273.0300771
273.0122129
272.1895615
275.2067596
273.0031581
272.9860257
272.9836902
272.9809339
272.9752963
272.9732988
272.9764494
272.9821751
272.9862934
272.989758
272.9943152
273.0022825
273.013614
273.025107
273.0333775
273.0342268
273.0288564
273.0124576
272.2382133
274.9575519
273.0027568
272.9901555
272.9874322
272.9817431
272.9749386
272.973559
272.9763753
272.9818312
272.9870879
272.9920204
272.9974435
273.0053159
273.0152771
273.0247703
273.0307787
273.0304156
273.0259381
273.0121179
272.3108011
274.7762897
273.0035167
272.9934019
272.9895191
272.982031
272.9763005
272.9759906
272.9769331
272.9806015
272.9869986
272.9938862
273.0010302
273.0094808
273.0183211
273.0257171
273.0286032
273.0263546
273.021984
273.0102967
272.371087
274.4866831
273.0036854
272.9956941
272.9903746
272.9823338
272.9784132
272.9793129
272.9787097
272.9809042
272.9879526
272.9961351
273.0037371
273.0115401
273.0191781
273.0253872
273.0267271
273.0236349
273.0186614
273.0082499
272.4734245
274.2849973
273.0038821
272.9967093
272.99069
272.9836356
272.9811616
272.9819808
272.9811183
272.9837669
272.9911219
272.9990881
273.0056627
273.011059
273.0167722
273.0219235
273.0237715
273.0217104
273.0165769
273.0072299
272.5419501
273.9658558
273.0032618
272.9965705
272.9907691
272.9867645
272.9847571
272.9839627
272.9838326
272.9881393
272.9951542
273.0018642
273.0064532
273.0089929
273.0117842
273.0157343
273.0188645
273.0189979
273.0152731
273.0077461
272.6742066
273.7542011
273.0027037
272.9959117
272.991619
272.9911584
272.9897051
272.986693
272.9868467
272.9917384
272.9979682
273.0033299
273.00668
273.0073538
273.0076775
273.0093888
273.0124754
273.0142032
273.0129502
273.0081245
272.7444245
273.4071956
273.0105866
272.9990336
273.0134796
273.0045854
273.0195066
273.0011317
273.0100976
273.0008647
273.0092413
273.005217
273.0095897
273.005067
273.005095
272.9988568
273.0037184
273.0017535
273.0076789
273.004465
272.8865272
271.9787084
275.4342155
272.9421126
276.2382313
273.8420431
276.4989632
274.2575016
276.1586042
274.1165295
275.3912746
273.5283194
274.424754
272.7576421
273.5669138
272.1453357
273.1046644
271.9449195
273.1305331
272.158277
273.4327903
276.6330965
273.0145184
272.9735437
272.9660351
272.9608615
272.9565805
272.9594447
272.9686039
272.9819787
272.9971409
273.0142039
273.0319567
273.0486709
273.062973
273.0662221
273.0572337
273.0489746
273.0476833
273.0307426
271.6559074
276.6367586
273.0142191
272.9726976
272.9638612
272.9593671
272.9566759
272.9600875
272.9674982
272.9788873
272.9929838
273.0094539
273.0266491
273.0428031
273.0568431
273.0623051
273.0576959
273.0497145
273.0436505
273.0212872
271.6390592
276.6207734
273.0167621
272.9743624
272.9648595
272.9622056
272.9616013
272.9647098
272.969713
272.9790886
272.9919979
273.0076532
273.0238576
273.0387905
273.0515689
273.0593617
273.0606522
273.0535853
273.0418104
273.0124606
271.5825037
276.6184062
273.0171006
272.9744542
272.9655285
272.9652178
272.9661445
272.9679143
272.9710119
272.9793319
272.9915594
273.0064497
273.0213992
273.0344497
273.0449913
273.0537039
273.0597598
273.054535
273.0389985
273.0049521
271.5596514
276.5594031
273.0144023
272.9742185
272.9669158
272.9677636
272.9686819
272.9687777
272.9712433
272.9797878
272.9920275
273.0058276
273.0189867
273.0299004
273.0378198
273.0461022
273.054979
273.0519581
273.036196
273.000938
271.4856203
276.5267202
273.0109711
272.975327
272.9701993
272.9698289
272.969108
272.9690806
272.9720959
272.9812293
272.9927022
273.0044471
273.0151739
273.0243528
273.0314995
273.0395175
273.0487867
273.0476296
273.0337138
273.0004669
271.482918
276.4096808
273.0066032
272.9779062
272.9751404
272.9717528
272.9695749
272.9714699
272.9754682
272.9836765
272.992862
273.0015207
273.0094898
273.0175316
273.0263178
273.0360174
273.0443943
273.0433228
273.0312378
273.0014723
271.4293588
276.3390207
273.0036518
272.9810841
272.9801828
272.9739845
272.9714002
272.976548
272.9813149
272.9865252
272.99185
272.9972483
273.0029145
273.0106915
273.0229967
273.035725
273.0429447
273.040152
273.0282983
273.0017608
271.4545689
276.1565491
273.0018069
272.9833676
272.9833986
272.9770252
272.9746855
272.9808581
272.98538
272.9879174
272.9903119
272.9935258
272.9979175
273.0059949
273.0208397
273.0362394
273.0420197
273.0369857
273.0249402
273.0016126
271.4480154
276.0488352
273.0034051
272.9842322
272.9839965
272.9799712
272.9777142
272.9819921
272.9850345
272.9870966
272.9889355
272.9918049
272.9960956
273.0047122
273.0196814
273.0340657
273.0387262
273.0324182
273.021172
273.0015381
271.5118705
275.7973982
273.0063181
272.9845092
272.982657
272.9819161
272.9792104
272.9797166
272.9817722
272.9850227
272.988341
272.9922559
272.9969104
273.0057021
273.0184527
273.029387
273.0325333
273.0267398
273.0181318
273.0028113
271.572297
275.6520084
273.0103654
272.9851173
272.9809695
272.9824531
272.9804395
272.9783449
272.9791837
272.983495
272.988286
272.9931888
272.9983018
273.0068691
273.0172209
273.0245324
273.0264648
273.0220304
273.0168249
273.0052227
271.6743117
275.3257666
273.0105308
272.9862076
272.9804866
272.9822363
272.9822696
272.9799617
272.9793664
272.9832929
272.988661
272.9937264
272.9989319
273.0067422
273.0154392
273.0213363
273.0232915
273.0202418
273.017645
273.0085587
271.8025468
275.1381854
273.0084299
272.9877853
272.9817698
272.982468
272.9842095
272.9832136
272.9816905
272.9846981
272.9896405
272.9943892
272.9992917
273.0058746
273.0135346
273.0194273
273.0223697
273.0210293
273.0198924
273.0114922
271.9264704
274.7498714
273.0041537
272.9898041
272.9845504
272.9837216
272.9850569
272.9848863
272.9839296
272.9867119
272.9911407
272.9958946
273.000524
273.0054135
273.0111947
273.0167358
273.021009
273.0220275
273.0216804
273.0136583
272.1021506
274.5424926
273.0025306
272.991738
272.9873405
272.9854868
272.9853187
272.9848234
272.9852344
272.9881954
272.9924492
272.9980116
273.0029702
273.0064585
273.00917
273.0121661
273.0161062
273.0190653
273.0209719
273.0144584
272.2321356
274.1235436
273.0021677
272.9932365
272.9889031
272.9876689
272.9862647
272.98516
272.9863791
272.9888941
272.9927439
272.9992566
273.005433
273.008376
273.0076893
273.0066117
273.008101
273.0122792
273.0165815
273.0134946
272.4427754
273.913474
273.0033856
272.994081
272.9898003
272.9899413
272.9891934
272.988216
272.9891338
272.9896817
272.9925274
272.999114
273.0061222
273.0089448
273.0067868
273.0028293
273.001067
273.0047032
273.0105087
273.0110816
272.5690073
273.4613655
273.0157494
272.9986697
273.0184125
273.001918
273.0252596
273.0045942
273.0164902
272.9976093
273.0036069
273.0001067
273.0075383
273.0055832
273.0037794
272.9944956
272.992673
272.9931898
273.0014701
273.0038551
272.7879964
271.6721514
276.0178612
272.7933167
276.9634317
273.8437014
277.2030362
274.3322689
276.6387156
274.1230338
275.5361061
273.4139934
274.2409511
272.5323424
273.1115612
271.854612
272.4952473
271.726438
272.5980819
272.1645655
273.0951752
278.2734711
273.0344678
272.9778537
272.9746094
272.9710228
272.9667264
272.9705306
272.9805484
272.9930956
273.0053223
273.0190696
273.0331568
273.0452602
273.0540745
273.0535742
273.0431646
273.0381757
273.0406156
273.0217481
270.681708
278.2836988
273.0339687
272.9772493
272.9723912
272.969132
272.9674874
272.9728831
272.9814288
272.9915903
273.0017667
273.0138666
273.0270257
273.0391708
273.0485968
273.0505893
273.0444988
273.039195
273.0365417
273.0120658
270.6408664
278.2943591
273.037138
272.9783238
272.9716802
272.9709216
272.9732529
272.9794229
272.9853595
272.9926073
273.0008944
273.0118349
273.0240845
273.0358963
273.0450625
273.0494963
273.0486593
273.0429949
273.0341144
273.0028783
270.561458
278.3061855
273.0390358
272.9765515
272.9689683
272.9728095
272.9784324
272.9831554
272.9856961
272.99134
272.9996357
273.0108988
273.0225713
273.0336164
273.0414334
273.0461942
273.048562
273.0429898
273.029896
272.9946641
270.4784343
278.2850329
273.037008
272.9748886
272.9683456
272.9751114
272.9811626
272.9823346
272.9824873
272.9884513
272.998857
273.0111192
273.021938
273.031461
273.0372362
273.0410537
273.0444538
273.0395304
273.0258455
272.9904817
270.3775103
278.2488466
273.0325967
272.9764049
272.972877
272.9780153
272.9807243
272.9793473
272.9796963
272.9871903
272.9993551
273.0109301
273.0194527
273.0269116
273.0321599
273.0361829
273.0389679
273.0352762
273.0231725
272.9906665
270.312237
278.1436336
273.0260099
272.9814707
272.9815566
272.9805365
272.9787532
272.9791187
272.9817089
272.9901398
273.000917
273.0091983
273.0142866
273.0193174
273.0261397
273.0329171
273.0359887
273.0327657
273.0217205
272.9927362
270.2547455
278.0276183
273.0204207
272.9874507
272.98988
272.9816847
272.9770703
272.9826443
272.9889086
272.9959709
273.0017668
273.0055134
273.0076616
273.0112009
273.0208168
273.0314715
273.0354751
273.0316856
273.0202382
272.9943196
270.2483848
277.8160837
273.0177609
272.9906234
272.9928176
272.9821171
272.97755
272.9866615
272.9946489
272.9989968
273.0002664
273.0011698
273.0028075
273.0067201
273.0178283
273.0304913
273.0342591
273.0288519
273.0170558
272.9948137
270.2753896
277.6166241
273.0200272
272.9899504
272.9897173
272.9826754
272.980007
272.9881218
272.9940375
272.9959622
272.9959302
272.9977504
273.0016286
273.0076365
273.0176747
273.0274092
273.0296455
273.0229938
273.0119817
272.994082
270.3531238
277.2891556
273.0236134
272.9873127
272.9839793
272.9830946
272.9830735
272.9867548
272.988891
272.9892758
272.9911449
272.9961154
273.0031276
273.010886
273.0177987
273.0225596
273.0227202
273.0159566
273.0076577
272.9939686
270.4934291
277.0052388
273.0266314
272.9852485
272.9791633
272.9827324
272.9861033
272.9861945
272.9849511
272.9846929
272.9886563
272.9957141
273.0035127
273.0110845
273.0158803
273.0177246
273.0176259
273.0123702
273.0073352
272.9962102
270.6575133
276.5544013
273.0232501
272.9844647
272.9772598
272.9820994
272.9881343
272.9880283
272.9847388
272.9849537
272.9893144
272.9956315
273.0015211
273.0068814
273.011177
273.0137746
273.0158431
273.0137257
273.0114789
273.001719
270.9068123
276.193402
273.0160031
272.9848478
272.9785699
272.9825362
272.9888826
272.9898709
272.9872859
272.9886679
272.9919114
272.9957337
272.9986243
273.0013762
273.0053984
273.010589
273.0161898
273.0178585
273.0177565
273.00854
271.1252964
275.6521839
273.0070706
272.9860356
272.9823269
272.9849273
272.9880961
272.9887329
272.9890087
272.9923863
272.9943573
272.99621
272.9973357
272.9980076
273.0010964
273.0070759
273.0152459
273.0197509
273.0214094
273.0129204
271.4468174
275.2694038
273.0027425
272.9880149
272.9864627
272.9878061
272.9868665
272.9861277
272.9891273
272.993371
272.995151
272.9969762
272.9985091
272.9990509
273.0001124
273.0036995
273.0109379
273.016208
273.0198275
273.0129227
271.6701937
274.6889926
273.0014554
272.9905
272.9891597
272.9895868
272.9864558
272.985018
272.9889287
272.9923612
272.9941193
272.9973505
273.0007387
273.0023852
273.0017184
273.0015567
273.0047681
273.0092305
273.0132102
273.0083485
272.0313434
274.3159569
273.0026706
272.992908
272.990637
272.9901349
272.9882917
272.9886936
272.9915616
272.9920993
272.9930499
272.9965391
273.0011698
273.0039264
273.0033197
273.0008741
273.0004852
273.0027679
273.0063251
273.0028899
272.2393202
273.6986632
273.0195528
273.002248
273.0311268
273.0093944
273.0390214
273.0178332
273.0302907
273.005107
273.0076363
272.998348
273.0034481
272.9996268
272.9994863
272.9904656
272.9910514
272.9898399
272.9976197
272.9958235
272.6188887
271.8397142
276.5828235
273.5557571
278.0417419
275.1700902
278.4967803
275.8780999
277.7693932
275.3117074
276.2033983
273.9017345
274.3744499
272.2872358
272.8462161
271.05328
272.1134145
270.7263594
272.4373618
271.3730334
273.3099252
279.6979531
273.0585474
272.9823823
272.9797794
272.9785717
272.9759064
272.9801094
272.9895273
273.0005477
273.0094812
273.0187267
273.0277097
273.0350638
273.0396983
273.039391
273.0352677
273.0342742
273.0360527
273.0044707
269.0323289
279.7232293
273.0564082
272.9808537
272.9778675
272.9764684
272.975855
272.9820704
272.9909274
272.9999156
273.0063363
273.0136287
273.021823
273.0294823
273.0345141
273.0359774
273.0347985
273.0336238
273.0313179
272.9960452
268.9818225
279.7480047
273.0579102
272.981343
272.9771016
272.9773855
272.9805237
272.9884094
272.995436
273.0013811
273.0057741
273.0119582
273.0196613
273.0272601
273.0326236
273.0355899
273.0368241
273.0346443
273.0277759
272.9903128
268.8302874
279.807189
273.0601054
272.9798662
272.9740995
272.9782109
272.9848956
272.992411
272.995911
272.9992821
273.0040925
273.0118551
273.0197299
273.0268416
273.0315668
273.0343819
273.0358807
273.0322596
273.0225567
272.9856836
268.726374
279.7977757
273.0591424
272.9788258
272.9735866
272.9804877
272.987837
272.9923144
272.9920031
272.994729
273.0024182
273.0123464
273.0202473
273.0265532
273.0307002
273.0320959
273.031437
273.0265488
273.0173805
272.9846445
268.518163
279.8087331
273.0564159
272.9808265
272.9784409
272.9845115
272.9892353
272.9895965
272.9878391
272.9918818
273.0020724
273.0120936
273.0185634
273.0241809
273.0284498
273.0290793
273.0255559
273.0201835
273.0138
272.9869634
268.4454098
279.6845692
273.0512207
272.9864028
272.9870431
272.9884775
272.9885979
272.9883715
272.9885534
272.9941748
273.0031862
273.0040001
273.0140423
273.0189226
273.0243671
273.0258138
273.0206411
273.0157478
273.0124839
272.9921515
268.3066537
279.594921
273.0487207
272.9926293
272.9945276
272.9901562
272.986514
272.9896422
272.9942835
273.0003895
273.004654
273.0067492
273.0087255
273.0128931
273.0196579
273.0223011
273.0176323
273.0136682
273.0119937
272.9963455
268.3336598
279.3072719
273.0460825
272.9951111
272.9957628
272.9892476
272.9856091
272.99226
272.9998232
273.0043926
273.0037998
273.0029241
273.0045705
273.009813
273.0165861
273.0187273
273.0150334
273.0117066
273.0100893
272.9976089
268.3551025
279.0997014
273.0468482
272.9927272
272.9909538
272.9878772
272.9871555
272.9941447
273.0002397
273.0021735
272.9993829
272.9991546
273.0036571
273.0110207
273.0158352
273.0156204
273.0120633
273.0087877
273.0062051
272.9945724
268.5130897
278.6235821
273.0431461
272.9887979
272.985312
272.987202
272.9904651
272.99431
272.9956138
272.9944878
272.993704
272.9971466
273.0050143
273.0127795
273.0149983
273.0125243
273.0094968
273.0062325
273.0024834
272.9903567
268.7347853
278.3009532
273.0408131
272.9865383
272.9819972
272.9866657
272.9928791
272.9942203
272.991686
272.9886728
272.9904616
272.9967977
273.0049383
273.010569
273.0114656
273.009522
273.0090031
273.007255
273.0023744
272.9884424
269.0248854
277.637427
273.0320099
272.9867496
272.9814605
272.9853852
272.9926541
272.9942915
272.9907341
272.9888098
272.991167
272.9969632
273.0022352
273.0043294
273.0046627
273.006115
273.0103629
273.0112778
273.0066968
272.9919168
269.446151
277.2314051
273.0244015
272.9876113
272.9829306
272.9848496
272.9906221
272.993342
272.9925879
272.9933486
272.9944109
272.9965916
272.9978744
272.9969165
272.9975037
273.0028295
273.0116291
273.0150999
273.0123001
272.9987678
269.8249132
276.4366987
273.0129241
272.9877878
272.9852774
272.9862948
272.9882063
272.9907549
272.9941268
272.9979346
272.9971131
272.9957636
272.9941766
272.9920366
272.9932351
273.0002776
273.0108901
273.0153731
273.0144796
273.0036011
270.3778355
276.0082902
273.0068981
272.9877766
272.9877477
272.9887711
272.9870943
272.9884517
272.9940554
272.9986666
272.9977423
272.9950374
272.9927835
272.9917796
272.9938271
273.0000758
273.0088267
273.0118615
273.0119254
273.0041876
270.7613589
275.1572248
273.0012473
272.9895636
272.9903449
272.990562
272.9873297
272.987901
272.9927355
272.9962551
272.9968681
272.9955331
272.994008
272.9943692
272.9971791
273.0017277
273.0068762
273.0073449
273.0066551
273.0003782
271.367455
274.7475107
273.0009566
272.9930879
272.9938333
272.9914273
272.9896318
272.9907641
272.9938514
272.9949783
272.9966446
272.9965895
272.9957291
272.9967449
272.9999614
273.0032919
273.0056519
273.0043328
273.0023499
272.9965826
271.7230718
273.8591039
273.0312333
273.00387
273.0623612
273.0142359
273.0671153
273.0219902
273.0454816
273.0085941
273.0143548
272.999958
272.9992351
272.9918144
272.99024
272.9883153
272.9892993
272.9900378
272.9931952
272.992235
272.3490268
271.2358659
277.9401194
273.3890856
279.8715321
275.4195695
280.2823573
276.2848293
278.9560336
275.5299671
276.5825411
273.7548236
273.9194523
271.7378646
271.6804553
270.2699724
270.5601455
270.1091968
271.0832617
271.322054
272.4600354
282.869826
273.1270838
272.9866093
272.9823099
272.9840959
272.9860535
272.9883871
272.9926494
273.000589
273.0083371
273.0138785
273.017716
273.0223596
273.0274606
273.0308441
273.0315172
273.0319025
273.0302718
272.9875058
266.5379722
282.928808
273.1246777
272.9842705
272.9806863
272.9818557
272.9833627
272.987761
272.9941822
273.0016055
273.0061932
273.0093677
273.0127156
273.017381
273.0220914
273.0258168
273.027959
273.0284539
273.0250063
272.9806479
266.410977
283.0552755
273.1282619
272.9857493
272.9820972
272.9822555
272.9841828
272.9913704
272.9986819
273.0043643
273.0067645
273.0090061
273.0125517
273.0167114
273.020079
273.0235018
273.0266936
273.02673
273.0215469
272.9799716
266.158504
283.1893273
273.13279
272.9876439
272.9828229
272.982752
272.9856471
272.9940084
273.0001058
273.0032601
273.0056049
273.0100773
273.01468
273.0179521
273.0193102
273.021215
273.0234427
273.0225286
273.0172953
272.9818073
265.8557032
283.3306652
273.1354651
272.989245
272.984457
272.9853961
272.9887889
272.9956913
272.9982678
272.9994621
273.0036008
273.0108415
273.0168025
273.0193323
273.019343
273.0192954
273.018656
273.0162166
273.0129061
272.9866224
265.499056
283.3926714
273.134133
272.9908547
272.9879862
272.9902341
272.9933921
272.9962466
272.9955243
272.9964566
273.0025142
272.9936916
273.0163751
273.0184427
273.0189116
273.0177468
273.0132794
273.0094083
273.0091194
272.993319
265.2119987
283.3664343
273.1323835
272.9944583
272.9935968
272.9952409
272.9969299
272.9966537
272.9953188
272.9971837
272.99312
272.0619803
273.0090495
273.0149069
273.0167369
273.0157807
273.0083956
273.0038296
273.0066858
273.0004689
264.9814763
283.2373292
273.1307773
272.9985863
272.9981902
272.9979015
272.9976444
272.9970811
272.9977995
273.0015057
273.0043455
272.8501339
273.0053949
273.0103319
273.0141309
273.013375
273.0047167
273.0004974
273.0051928
273.0055555
264.9014014
282.9220554
273.1257167
272.9996131
272.9985274
272.9972487
272.9968973
272.9979245
273.001023
273.0046705
273.0058172
273.0023255
273.0016233
273.0070142
273.0125004
273.0108102
273.0019227
272.9986042
273.0033171
273.0066568
264.9696267
282.5291132
273.1172514
272.9963981
272.9951849
272.9960677
272.9975653
272.998991
273.0014795
273.0041038
273.0030855
273.000385
272.9994695
273.0065255
273.0118303
273.0089666
273.0006297
272.9979912
273.0008685
273.0034115
265.1914025
281.8669059
273.1005432
272.9917553
272.9920509
272.9962214
272.9999308
272.9996561
272.998596
272.9991598
272.9996177
272.9989842
273.0007362
273.0060978
273.010258
273.0073896
273.0009918
272.9990438
272.9990968
272.9965463
265.6217865
281.2356283
273.0848677
272.9901319
272.9912061
272.9964701
273.0004311
272.9985375
272.9953431
272.9951766
272.9975061
272.9992878
273.0009228
273.0034458
273.0060931
273.005237
273.0028565
273.0026778
272.9994992
272.9914666
266.1397257
280.2707754
273.0672978
272.9921723
272.991851
272.9949795
272.9978101
272.9957993
272.9937095
272.995232
272.9977638
272.9991005
272.9987772
272.998154
272.9994756
273.002085
273.0053536
273.0073191
273.0020714
272.9884322
266.9062771
279.4953364
273.0559477
272.9948216
272.9923689
272.9923583
272.9934854
272.9928545
272.9947908
272.9990433
272.9996496
272.9976911
272.9946129
272.9924869
272.9935875
272.9990313
273.0073629
273.0103116
273.0047365
272.9907684
267.610734
278.3471345
273.0388849
272.9950809
272.9916673
272.9905851
272.9901339
272.9909802
272.9974434
273.0036914
273.000817
272.9947513
272.9901073
272.9884936
272.9908169
272.9980018
273.0079022
273.0100308
273.0050591
272.9929664
268.5825745
277.5500883
273.0262759
272.9925125
272.9907831
272.9900844
272.9893221
272.9919417
272.9991904
273.0038363
272.9995445
272.9922961
272.9880503
272.9883352
272.9922104
272.9994239
273.0077053
273.0074017
273.0033072
272.9964594
269.2776069
276.3232865
273.0111469
272.9914567
272.9916252
272.9903622
272.9906015
272.9946703
272.9982014
272.9992142
272.9967665
272.9929314
272.9900597
272.9911526
272.9959451
273.002554
273.007603
273.004569
273.0012367
272.99811
270.312101
275.5813975
273.0046185
272.9941123
272.9962219
272.9921509
272.9940246
272.9976848
272.9974465
272.9947986
272.9957522
272.9963422
272.9946621
272.9948965
272.9993987
273.0050829
273.0070891
273.0027075
273.0003364
273.0002747
270.9155275
274.3312858
273.0481268
273.0137853
273.1129258
273.046292
273.1293118
273.0660659
273.08433
273.0290712
273.0283263
273.006922
273.0013719
272.984819
272.9818435
272.982827
272.9848513
272.9885267
272.990627
272.9986999
271.9566059
271.471192
279.2051897
274.8117567
282.2446512
278.08676
283.0994775
279.4993332
281.2546022
277.8627953
277.7751458
274.6001068
273.9572271
271.0560142
270.8039743
268.3499576
269.3585386
267.756314
270.4873714
269.5904286
272.8168811
285.9601656
273.2129849
272.9938939
272.9893597
272.9915514
272.9966628
272.997466
272.9939486
272.9958181
273.0045247
273.0126039
273.0150677
273.0142359
273.0166055
273.0228759
273.0283049
273.0288147
273.0244187
272.9843075
263.2076884
286.1178751
273.2135399
272.9912117
272.9877133
272.988901
272.9909745
272.9926389
272.9949945
273.0006142
273.0054657
273.0078412
273.0084179
273.0098236
273.0132963
273.0185706
273.0234419
273.0233468
273.0182671
272.9777755
262.9994199
286.3649639
273.2228402
272.9945389
272.9904939
272.989384
272.9876665
272.9913173
272.9992577
273.0067235
273.0080727
273.0065598
273.0073087