/*--------------------------------*- C++ -*----------------------------------*\
| =========                 |                                                 |
| \\      /  F ield         | OpenFOAM: The Open Source CFD Toolbox           |
|  \\    /   O peration     | Version:  5.x                                   |
|   \\  /    A nd           | Web:      www.OpenFOAM.org                      |
|    \\/     M anipulation  |                                                 |
\*---------------------------------------------------------------------------*/
FoamFile
{
    version     2.0;
    format      ascii;
    class       volVectorField;
    location    "4.4";
    object      U;
}
// * * * * * * * * * * * * * * * * * * * * * * * * * * * * * * * * * * * * * //

dimensions      [0 1 -1 0 0 0 0];

internalField   nonuniform List<vector> 
30538
(
(0.09892578447 0.001951372587 -0.003802430855)
(0.08146063136 0.001230612812 -0.004536554344)
(0.04832388652 0.0003570194288 -0.007277867648)
(0.03541907556 -0.002130088933 -0.005710968207)
(0.006740382404 -0.0004322714062 -0.00758172891)
(0.01324657652 -0.002048735663 -0.008219115421)
(-0.003278960306 -0.001124337722 -0.005833909724)
(0.003450689224 -0.004393327467 -0.005823039621)
(-0.02632098052 -0.003922624468 -0.002817438663)
(-0.02798093896 -0.005977809858 -0.001383679455)
(-0.04015586847 -0.003786613284 0.003006535062)
(-0.01541123336 -0.004832300688 0.003013085321)
(-0.01282496019 -0.003926288558 -0.00191042325)
(-0.01365945905 -0.007626028289 -0.009369648826)
(-0.04302896519 6.441005492e-05 -0.01022166737)
(-0.02560803227 0.01060021565 -0.004544473707)
(0.006106728953 0.01106338809 -0.004470748662)
(0.02467535064 -0.006819891474 -0.007919715624)
(-0.02487320412 -0.0211356755 -0.01473782134)
(-0.0850904963 -0.01402758783 -0.0035487601)
(0.1012299395 0.001656931822 -0.00397723053)
(0.0803539938 -0.0004861113171 -0.004687364884)
(0.04590417554 -0.002730623578 -0.007009744093)
(0.03488274241 -0.006160695436 -0.005633860959)
(0.00676901495 -0.0038973554 -0.007491779546)
(0.01275513706 -0.006447586144 -0.007177669597)
(-0.004938756796 -0.007671378375 -0.00411085152)
(0.001501215258 -0.01254193557 -0.004142766375)
(-0.02743068222 -0.01446971764 -0.001486347122)
(-0.02784162297 -0.01373295661 -0.0006196997561)
(-0.03937513084 -0.01039711842 0.00317284031)
(-0.0155171989 -0.007611353256 0.002798609508)
(-0.0148344158 -0.01065122214 -0.001487905783)
(-0.01085366051 -0.01770004768 -0.007148265864)
(-0.03011420506 -0.00500740365 -0.009678119311)
(-0.01789240284 0.02123467277 -0.00698670885)
(-0.006135870494 0.02045533777 -0.007728865699)
(0.001850070847 -0.01680174797 -0.006777115597)
(-0.02999729395 -0.04874936295 -0.009292465532)
(-0.06024302065 -0.03263954376 -0.0007488659921)
(0.09994429894 -0.0020675114 -0.003517691205)
(0.07834895534 -0.009132469785 -0.00404940885)
(0.04430251685 -0.006973601813 -0.006661257287)
(0.0345970507 -0.01011657939 -0.005926519846)
(0.006505504704 -0.005355719847 -0.00716198764)
(0.01058992202 -0.01185629337 -0.00536724979)
(-0.007577162827 -0.01159012358 -0.001789959495)
(-0.001325689547 -0.02044486553 -0.002142679973)
(-0.02717308541 -0.01793198104 -2.555087035e-05)
(-0.02503172934 -0.0172106081 -0.0001557043714)
(-0.03587774485 -0.004790038596 0.002334650184)
(-0.01557008803 -0.001942286599 0.001534517478)
(-0.01998089186 -0.002662162374 -0.001248112869)
(-0.009693947338 -0.0179206258 -0.004088626871)
(-0.01550699782 -0.01070814436 -0.008205796892)
(-0.007697045656 0.007247675452 -0.00961410686)
(-0.02069021691 0.009775455448 -0.01124983176)
(-0.02433760287 -0.02148652631 -0.005529649438)
(-0.03607532796 -0.04530696881 -0.003200666051)
(-0.02775461765 -0.03073157248 0.002762911513)
(0.09356830406 -0.006146368306 -0.002176482901)
(0.07672524602 -0.01742105053 -0.00225385408)
(0.045309162 -0.01107098393 -0.006429882746)
(0.03599202496 -0.01220647686 -0.006692907192)
(0.005576508882 -0.009234001234 -0.006600573598)
(0.00834499596 -0.01722643023 -0.003394348006)
(-0.01101279879 -0.01725173916 7.027236277e-05)
(-0.002961819352 -0.02498488278 -0.0006309078888)
(-0.02518108385 -0.02215284222 0.0005981694056)
(-0.01849038723 -0.01864254901 -0.0005227787685)
(-0.02864221427 -0.003369699826 -4.875675975e-05)
(-0.01401486305 0.005263561218 -0.001616744814)
(-0.0261249668 0.00621864844 -0.003308716292)
(-0.0165300522 -0.009591710144 -0.002514213062)
(-0.01236289257 -0.01862037186 -0.00634409412)
(-0.003429699228 -0.02343527525 -0.009681166339)
(-0.02648168896 -0.01824625988 -0.01307383699)
(-0.03713519025 -0.02200610469 -0.004825078297)
(-0.03645721865 -0.02058750736 -9.922652581e-05)
(-0.006790839833 -0.009881495719 0.004464335072)
(0.08352910299 -0.003416230378 -0.0008313923891)
(0.07466593872 -0.01921102772 -0.0002512670283)
(0.04808016529 -0.008361509701 -0.006160866844)
(0.03583589966 -0.01239918591 -0.007177208811)
(0.003020664891 -0.01064452973 -0.005017139255)
(0.004910955605 -0.02135571836 -0.001232260491)
(-0.01306304451 -0.01437927129 0.001391921693)
(-0.00476294028 -0.02367861753 -0.0001714466652)
(-0.022729344 -0.02058182688 0.0007270272791)
(-0.01171565347 -0.02336099876 -0.0008168884986)
(-0.01906925261 -0.006051375628 -0.002440279822)
(-0.008808828173 0.002185851711 -0.005495762257)
(-0.03048193816 0.01244448688 -0.006759661771)
(-0.02722338658 -0.0002015722507 -0.003302957175)
(-0.02533467363 -0.01873164781 -0.00383680411)
(-0.007390390679 -0.05237672977 -0.005107532518)
(-0.01974007091 -0.04608395527 -0.009813495066)
(-0.02599835888 -0.02202620185 -0.004654634011)
(-0.0272998546 0.01116295729 -0.002064501187)
(-0.006613073313 0.01445660252 0.001921989726)
(0.07775868931 0.003326549964 -0.001030058378)
(0.07310346998 -0.01286665282 0.0002017319683)
(0.05015039239 -0.002375807232 -0.006098266607)
(0.03432908753 -0.01170550506 -0.006452707998)
(-0.0007271063153 -0.01166042949 -0.002885201943)
(0.005690411042 -0.02088293738 0.000467185455)
(-0.01265570454 -0.007177390449 0.0006077998568)
(-0.007309268317 -0.01580038969 -0.0009192789338)
(-0.02497940558 -0.01937154011 0.0009779222322)
(-0.008168892701 -0.02986308688 0.0002670808438)
(-0.01066209524 -0.01993182349 -0.003518567907)
(-0.000975841615 -0.01319479197 -0.008756683552)
(-0.02783042698 0.004930901925 -0.012047834)
(-0.03854497849 0.006614320577 -0.006956167428)
(-0.04925286364 -0.0138463288 -0.003100634915)
(-0.02272446467 -0.06196582491 0.00261911715)
(-0.005000193735 -0.06309884335 -0.002873981668)
(0.003391843395 -0.02352547935 -0.004171736427)
(-0.01034808032 0.02794105431 -0.008769526106)
(-0.02543921615 0.02791457091 -0.003413892845)
(0.07692209301 0.01066905856 -0.002643394592)
(0.07056345081 -0.005039841139 -0.001242186749)
(0.04894845883 0.004587776442 -0.005840726082)
(0.02922736211 -0.01123770222 -0.004476813669)
(-0.003464353757 -0.00718798431 -0.0004581681407)
(0.00807713372 -0.01582578229 0.001258999861)
(-0.00947123705 0.003729380576 -0.0006719508782)
(-0.01334282181 -0.007191470501 -0.001852435754)
(-0.032646135 -0.01216209996 0.002817271053)
(-0.01206011271 -0.03202518563 0.003374161566)
(-0.007326583615 -0.02974978349 -0.001612138425)
(0.008728512824 -0.03163994034 -0.009042470916)
(-0.01652426382 -0.007862409711 -0.01558720071)
(-0.04050624961 0.005227150245 -0.01277082305)
(-0.07379948949 -0.00414768198 -0.003622382804)
(-0.0421988674 -0.0491504837 0.009685451421)
(0.007546352018 -0.05721247253 0.00639491456)
(0.03847519066 -0.02647334308 -0.003431242078)
(0.009401102117 0.02048589493 -0.01563905085)
(-0.04666992117 0.02126943295 -0.009534993949)
(0.08184739011 0.01266438424 -0.004966725142)
(0.06874306902 -0.001202335054 -0.003523893737)
(0.04590162087 0.005391115686 -0.00543966877)
(0.02598423711 -0.01175771926 -0.002223595245)
(-0.003955012863 -0.001186756232 0.0005541570821)
(0.01338804362 -0.009892658933 0.00067989969)
(-0.006560932478 0.005744277673 -0.003068814666)
(-0.01851158475 -0.005139413669 -0.00229868271)
(-0.04249741409 -0.004345917192 0.003991072692)
(-0.0205480192 -0.02422153377 0.006163996992)
(-0.0103952116 -0.02717024484 0.0007586449946)
(0.01444542886 -0.03895208337 -0.007453879119)
(-0.001813648989 -0.02134607885 -0.01803688733)
(-0.03595809675 -0.007994232819 -0.01813989892)
(-0.0876897676 -0.001851995161 -0.00731690538)
(-0.06023592938 -0.02597646406 0.01232834823)
(0.01109741779 -0.03453127076 0.01123451108)
(0.058429337 -0.02765964458 -0.00242750516)
(0.02371066553 -0.002927041371 -0.0200031852)
(-0.05545171023 0.0008573147607 -0.01250936503)
(0.08512244533 0.01081180918 -0.005852224762)
(0.06537050682 -0.003425924461 -0.004609919186)
(0.04164689615 0.003996832653 -0.00412813911)
(0.02454800753 -0.01294992952 -0.0006594419634)
(-0.002132164654 0.007463855498 0.0008079999705)
(0.01295598464 -0.006940346697 -0.0003276659142)
(-0.006107238351 -0.0005740270971 -0.002818197855)
(-0.02043519232 -0.01137899263 -0.001831317084)
(-0.04610590043 0.00282670869 0.004772248041)
(-0.02815698202 -0.00819078604 0.006468162772)
(-0.01773366837 -0.008741038162 0.002725702292)
(0.01279403245 -0.03090089685 -0.004827878105)
(0.00531785615 -0.02797818591 -0.01595719551)
(-0.02675647338 -0.02856694119 -0.01994705402)
(-0.08651608728 -0.01088301959 -0.01005357381)
(-0.06528890861 -0.007163675818 0.009612535839)
(0.006355875602 -0.007461724625 0.0109337337)
(0.06084105073 -0.02655680288 -0.002626981248)
(0.0297780732 -0.02818494658 -0.01940581346)
(-0.04555806596 -0.02157658271 -0.01182944495)
(0.08717117561 0.006894365775 -0.00509066939)
(0.06388605048 -0.008249280285 -0.003698807078)
(0.03932562667 0.00459772302 -0.002759715386)
(0.0283875405 -0.01167276464 -0.0002423895411)
(0.0002883225821 0.01287204593 -0.0006015904815)
(0.007716383658 -0.008288924609 -0.0004325772698)
(-0.009683911911 -0.009768385956 -0.001307647712)
(-0.01605882289 -0.0208117317 -0.0007834557782)
(-0.0402245979 0.005875836557 0.0021792766)
(-0.0287007903 0.005112088835 0.002816503359)
(-0.02644707622 0.0105197087 -0.0001341653756)
(0.0008192434021 -0.01810872869 -0.003680498955)
(-0.000190475806 -0.03030413449 -0.0133173935)
(-0.02386124514 -0.04964652214 -0.01758994011)
(-0.07254803068 -0.02561995099 -0.01227255703)
(-0.05782717377 0.001551215432 0.003071895502)
(-0.002643354898 0.01293778761 0.003753797961)
(0.0436848114 -0.02434185707 -0.003551332054)
(0.02734047493 -0.04571477613 -0.015260623)
(-0.02050179267 -0.03619303909 -0.007267000929)
(0.08430105935 0.00435284512 -0.002705824895)
(0.06366421116 -0.01163921077 -0.001267512971)
(0.03937185033 0.01096270923 -0.001876994746)
(0.03035772647 -0.006588114008 -0.001120287313)
(0.0002504482966 0.01493108274 -0.001956303001)
(-0.002991020829 -0.008246882749 0.0003176093155)
(-0.01495509073 -0.008938864251 0.002391039343)
(-0.009320462892 -0.02174777882 0.0006140876732)
(-0.02779733654 0.008389156503 -0.0001224880881)
(-0.02487001125 0.009885886085 -0.00221250495)
(-0.03413533623 0.01714375268 -0.002594763441)
(-0.01605175614 -0.0118891159 -0.00310675669)
(-0.01695798146 -0.03265277925 -0.007696277036)
(-0.02341466859 -0.06118310918 -0.01156603643)
(-0.05031498008 -0.03427152744 -0.01116860319)
(-0.03807545369 0.003927784683 -0.0048669718)
(-0.01201047094 0.02047543261 -0.005161235098)
(0.01921841622 -0.02143572995 -0.004728183083)
(0.02143225816 -0.0496555822 -0.007637286878)
(0.01218659813 -0.03924600114 -0.001560431438)
(0.0821880867 0.004255573584 -0.0002954520784)
(0.06840846272 -0.01337736075 0.0008278689763)
(0.04304448624 0.01704691395 -0.002639205153)
(0.03116322014 -0.002526069808 -0.003102932899)
(-0.0008718726771 0.01120497815 -0.003977331603)
(-0.009093897682 -0.008308374028 0.00068746944)
(-0.01924431918 0.00178719637 0.004161312231)
(-0.003755899599 -0.01391418232 0.001622515752)
(-0.01791000833 0.01058089054 -0.003306068513)
(-0.0225058346 0.004565871374 -0.006397890817)
(-0.04181496204 0.01122698995 -0.005932418076)
(-0.03436330128 -0.01766285281 -0.002928027357)
(-0.03497548938 -0.03413897896 -0.004063058138)
(-0.02499417618 -0.05956569933 -0.005492541767)
(-0.02653454592 -0.0290158918 -0.01079579391)
(-0.01916581822 0.006069491662 -0.01194249692)
(-0.02065009205 0.02168436982 -0.01346394825)
(-0.00604011251 -0.01645196736 -0.004312254383)
(0.01474640506 -0.0412274131 5.86156293e-05)
(0.04222421343 -0.03311535368 0.004766015142)
(0.07801154152 0.005700860101 0.001094408254)
(0.07252703842 -0.01576350137 0.00161561734)
(0.04719254595 0.01831812136 -0.004310962198)
(0.026197127 -0.004672632527 -0.005544686035)
(-0.003798141263 0.003704254614 -0.005037186727)
(-0.009589468129 -0.01209751128 0.000160946522)
(-0.0189433249 0.01244986786 0.004297482249)
(-0.003053263114 -0.004432104689 0.001014592122)
(-0.01477565619 0.01186396752 -0.004289953026)
(-0.02439048627 -0.003445208125 -0.008139046261)
(-0.04980405972 -0.000382638174 -0.005800305597)
(-0.04811312372 -0.02626030502 -0.001774076666)
(-0.0465266628 -0.03351754368 0.0004290128228)
(-0.0198247725 -0.04770377115 -0.001322693565)
(-0.003961978684 -0.01679803403 -0.01029240425)
(-0.002233529766 0.00656487488 -0.01830807315)
(-0.02799408649 0.01830768664 -0.0186414507)
(-0.02535076507 -0.007514133081 -0.003559048268)
(0.009645061265 -0.02251682862 0.007430805235)
(0.06460870784 -0.01956233133 0.009049376072)
(0.07520807799 0.00816958728 0.001390021998)
(0.07717693306 -0.01843134263 0.001143123213)
(0.051013406 0.009645672251 -0.006487763818)
(0.02082997749 -0.01844001342 -0.007558293498)
(-0.006074016102 -0.008136192987 -0.005620285175)
(-0.002883424018 -0.02223995857 -0.0008786843533)
(-0.01386614981 0.00931748547 0.0008383571453)
(-0.004102434157 -0.005626236732 -0.0009944533597)
(-0.01723578624 0.008199259492 -0.005948005156)
(-0.03111224997 -0.01234533632 -0.008135900472)
(-0.05787927865 -0.008163448399 -0.005443001132)
(-0.05777982355 -0.02926055041 -1.895682771e-05)
(-0.05013934902 -0.02535602658 0.002178505443)
(-0.01323980741 -0.03155519952 0.0004599304223)
(0.0117554157 -0.007096463203 -0.01215986193)
(0.005685383983 -0.002289046352 -0.02210524202)
(-0.03060328672 0.009295528264 -0.02138665051)
(-0.03494177821 0.002722298604 -0.003007859697)
(0.006245865944 0.004813604754 0.01050727779)
(0.07177888813 -0.002343086833 0.01102185921)
(0.07088234765 0.01189803208 0.0006902477854)
(0.0734904055 -0.02105796904 -0.0001801372093)
(0.04732681022 -0.006767695503 -0.007343974098)
(0.01364258808 -0.04012408087 -0.007412218124)
(-0.006446923766 -0.01945502336 -0.004538296971)
(0.002744626353 -0.03510509239 -0.002160140882)
(-0.007254156497 -0.007377165255 -0.002143554218)
(-0.003763683192 -0.02135947138 -0.003647083687)
(-0.01952750642 -0.004262166621 -0.006296789196)
(-0.03589685138 -0.02253604942 -0.007755813785)
(-0.06170014371 -0.01008767856 -0.003683950572)
(-0.06027640862 -0.02098265067 0.00122436066)
(-0.04819124611 -0.008305615152 0.003888669691)
(-0.007005811941 -0.01354719167 0.0003368951132)
(0.01666234833 -0.005951186831 -0.01223952608)
(0.009390699188 -0.01853322067 -0.02198416556)
(-0.02439102317 -0.004958080074 -0.02000983629)
(-0.02851731119 0.01034805275 -0.004364319668)
(0.006118045396 0.03157123155 0.008479799425)
(0.06259622196 0.01467681718 0.008735439457)
(0.06887325357 0.01468442097 -0.0004864456006)
(0.06396240076 -0.02477045109 -0.001451143325)
(0.03772755989 -0.02497060148 -0.006185073696)
(0.01183381748 -0.06128802979 -0.004916510165)
(-0.002506343436 -0.02835286315 -0.003394816244)
(0.005646032278 -0.04696370089 -0.003007939394)
(-0.004176873917 -0.02839475629 -0.004073907823)
(-0.001822086113 -0.04432876614 -0.004135601616)
(-0.01807204532 -0.02459673542 -0.006733556149)
(-0.03518346566 -0.03582402213 -0.006610868338)
(-0.05675815115 -0.01074556974 -0.00376774041)
(-0.05657119233 -0.009055908716 0.0007186534721)
(-0.04494594293 0.0136495088 0.002022694609)
(-0.01165309974 0.00308397429 -0.0007833051012)
(0.008206000562 -0.00679012446 -0.01076496222)
(0.006425962055 -0.03432883052 -0.01654844424)
(-0.01013084242 -0.01794747582 -0.01573743937)
(-0.009086005564 0.01224181582 -0.006204182284)
(0.009413787972 0.04912429387 0.0004294652454)
(0.0387545886 0.02508371538 0.003611948543)
(0.06391432528 0.01370699444 -0.001813657386)
(0.04548343417 -0.03073311717 -0.002599697233)
(0.0217482216 -0.03766363601 -0.003479788415)
(0.01119593043 -0.07347943642 -0.00149976353)
(0.003688990069 -0.03481976467 -0.002716691385)
(0.002723212367 -0.05611824852 -0.003817370196)
(-0.005396622046 -0.04172917894 -0.003283973353)
(-0.001004937512 -0.06190845085 -0.0030203883)
(-0.01352792524 -0.04341768323 -0.004557531473)
(-0.02609313916 -0.04999941641 -0.005392309522)
(-0.04281407925 -0.01608531258 -0.003520144328)
(-0.04310606526 -0.005040729158 -0.001833488374)
(-0.039671609 0.02477087765 -0.000992449577)
(-0.02150176251 0.01428467774 -0.002777938299)
(-0.009791771732 -0.0009957965243 -0.005849203751)
(0.001550561912 -0.03265853484 -0.007088633662)
(0.008522831444 -0.01824632229 -0.007441221333)
(0.01893318837 0.01063240086 -0.007789088993)
(0.01534806612 0.04698457865 -0.009222191772)
(0.009771070653 0.02344864762 -0.003388751653)
(0.05701801443 0.006869343842 -0.002658662811)
(0.02769502792 -0.04166321409 -0.003303252196)
(0.007736132191 -0.04178606842 -0.0004961113647)
(0.01380595446 -0.07509344241 0.001117959575)
(0.009766579814 -0.0421388235 -0.00295911896)
(0.0007785557474 -0.06529264508 -0.00411909749)
(-0.008282471728 -0.0482635909 -0.002076817819)
(-0.002962099264 -0.07121976893 -0.0005497742789)
(-0.009665865893 -0.0554347669 -0.002064249292)
(-0.01587951212 -0.06082286963 -0.002830804526)
(-0.0250402138 -0.02447804528 -0.003748603851)
(-0.02776200482 -0.01196551915 -0.00396313823)
(-0.03132935726 0.02199820793 -0.00505910656)
(-0.02989218111 0.01797742253 -0.004324360569)
(-0.0249884148 0.01557459474 -0.002328568448)
(-0.005754409542 -0.007353778812 0.001500376503)
(0.02043031581 0.002161806415 -0.0003320250525)
(0.0370438468 0.00781457002 -0.007129602995)
(0.01864404563 0.02666032953 -0.01560202266)
(-0.01139044412 0.01017427955 -0.007368627226)
(0.03948915861 -0.002746042427 -0.002676390787)
(0.01102221728 -0.05486751317 -0.002941683016)
(-0.001820321251 -0.0385589628 0.001083231733)
(0.01082830135 -0.06886694424 0.001908700278)
(0.01056834835 -0.04939571368 -0.002749159746)
(-0.001597317991 -0.07434154645 -0.003629417054)
(-0.009552835149 -0.05160290712 -0.0003237831647)
(-0.005957338882 -0.07066515494 0.001372758796)
(-0.006090475338 -0.05228847418 0.001039902761)
(-0.004179364597 -0.05841788192 -0.0007402316655)
(-0.008311195617 -0.02987665523 -0.002540063427)
(-0.01033413539 -0.02417412039 -0.00487573927)
(-0.01857358837 0.006314145189 -0.00610054998)
(-0.02609111499 0.01036593774 -0.004987122152)
(-0.0277289802 0.02991310568 0.0004598285656)
(-0.007961260189 0.02538055593 0.005431402154)
(0.01927520651 0.03027098046 0.004029009525)
(0.03630191644 0.009839167138 -0.00431145419)
(0.017206559 0.002603356544 -0.01390475758)
(-0.01654019765 -0.005811737157 -0.007705618998)
(0.01646474542 -0.01275834724 -0.001299917745)
(0.002602068024 -0.06683014665 -0.001161694839)
(-0.001908949913 -0.03162950858 0.001058277473)
(0.006397515234 -0.06098749523 0.0008606483444)
(0.006000024884 -0.05560335537 -0.001406498824)
(-0.0007618440485 -0.08448483385 -0.001516269916)
(-0.005812721961 -0.05239419363 0.0001806443637)
(-0.003604986897 -0.06275207001 0.001334041145)
(-0.00116497734 -0.03937903438 0.0008462561011)
(-0.0001576831592 -0.05277181113 -0.0001377875838)
(-0.0008856537016 -0.03347519146 -0.001432534634)
(-0.002156629219 -0.03958605062 -0.002376085053)
(-0.006831214517 -0.01552180004 -0.003616807663)
(-0.01314971278 -0.003102233484 -0.002201415476)
(-0.01429586253 0.04018071621 0.000632795048)
(-0.005565660384 0.0566438912 0.003863034656)
(0.009316717005 0.05921704107 0.002885239268)
(0.01730527255 0.0157991422 -0.001364683464)
(0.007496652163 -0.01681476138 -0.006744857716)
(-0.009429310796 -0.01966253398 -0.003382075877)
(0.08816397619 0.001610186756 -0.01370293615)
(0.07659040267 0.0009237556416 -0.007976007054)
(0.04687006358 0.0008478540791 -0.02522522836)
(0.035037615 -0.002010191048 -0.01435484732)
(0.003371381074 -0.0002762395967 -0.02748982565)
(0.01556494105 -8.623637221e-05 -0.01969645038)
(-0.0001425435684 0.002141999161 -0.0262546071)
(0.00752074612 -0.001205347518 -0.02014325272)
(-0.02037123073 -0.001386109536 -0.02342840742)
(-0.02007123047 -0.00453255079 -0.0143270478)
(-0.03428846204 -0.003491162031 -0.01154705161)
(-0.02191403198 -0.005242444992 -0.008271188526)
(-0.02940506486 -0.003136622469 -0.01868008835)
(-0.02478491896 -0.003427308501 -0.03192086502)
(-0.03653600626 0.001090464738 -0.02973645101)
(-0.01791398178 0.005912640178 -0.02112021505)
(0.001644143788 0.004820282264 -0.01519723281)
(0.0106974401 -0.00468361923 -0.03141463329)
(-0.01888001446 -0.01081090239 -0.03466485986)
(-0.06080379165 -0.008698866915 -0.01793154139)
(0.0900049673 0.002193088917 -0.01453833949)
(0.07604128788 0.0004174637563 -0.009171160649)
(0.04477698381 -0.001595881127 -0.02507935224)
(0.03424035587 -0.00662215753 -0.01389963165)
(0.004720440346 -0.00314950748 -0.02736545503)
(0.01726857215 -0.001066962868 -0.01849259181)
(-0.0009360888737 -1.097393484e-05 -0.02357269259)
(0.005050117671 -0.005564284414 -0.01684395192)
(-0.02271256192 -0.00917263527 -0.01979673758)
(-0.02152122428 -0.01142424463 -0.01214858692)
(-0.03481413893 -0.01171525526 -0.009911321305)
(-0.02168064567 -0.01044306869 -0.007943873545)
(-0.0281641421 -0.009432773526 -0.01695938943)
(-0.02181846865 -0.007716836093 -0.02836139033)
(-0.02992887788 -0.00119256292 -0.02906865693)
(-0.01528081866 0.01154845861 -0.02726082585)
(-0.005848104711 0.007489572616 -0.02132366234)
(-0.0003866170115 -0.0123486945 -0.02836562895)
(-0.02170339409 -0.02684784689 -0.02280127857)
(-0.04704674128 -0.02062393047 -0.01130568696)
(0.0901847478 0.001375387699 -0.01417059773)
(0.0738820192 -0.004499106175 -0.008719045976)
(0.04191760979 -0.005901878185 -0.02483731498)
(0.03390529106 -0.01216828861 -0.01439871575)
(0.007288160555 -0.003703234226 -0.02751047038)
(0.01777820712 -0.004683301201 -0.01604525358)
(-0.003309786325 -0.00365597326 -0.02024028456)
(0.001066500754 -0.0137810237 -0.01227830347)
(-0.02451566005 -0.01399383105 -0.01713303766)
(-0.02181251659 -0.01705221787 -0.01015014527)
(-0.03364169243 -0.01094271442 -0.01174386329)
(-0.02029682675 -0.01036518878 -0.009289536648)
(-0.0275185793 -0.006143943388 -0.01711233262)
(-0.01899341917 -0.009158073981 -0.02304071602)
(-0.02294354181 -0.004376683416 -0.02780990452)
(-0.01178726954 0.002137311301 -0.03386237218)
(-0.01523730253 -0.0004279974192 -0.02900590313)
(-0.01364982607 -0.01785037963 -0.02455071575)
(-0.0247150399 -0.02785470541 -0.008966202902)
(-0.02744145293 -0.02081503015 -0.002274208291)
(0.0880197271 -0.001019908477 -0.01155206429)
(0.07080730701 -0.01018925131 -0.005307551456)
(0.03945815177 -0.01014105249 -0.02389564573)
(0.03573086973 -0.01461195832 -0.01560089911)
(0.01003139605 -0.005190142343 -0.02645627192)
(0.01727667687 -0.009365205762 -0.01271121599)
(-0.007352371932 -0.01120816142 -0.01575773391)
(-0.002236901039 -0.02122902641 -0.008729651072)
(-0.02504677636 -0.02072775744 -0.01352166531)
(-0.01930598488 -0.01990326105 -0.01012293074)
(-0.03013725707 -0.01245620107 -0.01343047552)
(-0.01829550478 -0.008100542551 -0.01463159011)
(-0.02733815854 -0.00424813928 -0.0185099055)
(-0.0205713836 -0.008113783164 -0.0200777652)
(-0.02196409478 -0.01034341638 -0.02294559781)
(-0.01248990812 -0.01483889594 -0.03459525062)
(-0.0199842282 -0.01551937903 -0.03113595894)
(-0.01984044294 -0.02035886842 -0.0221297872)
(-0.0237322978 -0.01841404364 -0.0007217375767)
(-0.01292758929 -0.01147087944 0.002108905595)
(0.08246719341 -0.001242666033 -0.008675595384)
(0.06733886663 -0.01453850693 -0.001009137554)
(0.03887979396 -0.007752697805 -0.02333434269)
(0.03732804374 -0.01196554675 -0.0162602234)
(0.01103076061 -0.003615985827 -0.02428211074)
(0.01349841462 -0.01401846757 -0.00812517547)
(-0.01167491366 -0.01335883388 -0.01358779812)
(-0.005648459081 -0.0242256813 -0.006697776277)
(-0.02360811186 -0.01986117399 -0.01430977179)
(-0.01591681016 -0.02186124027 -0.01012165117)
(-0.02535096775 -0.01264255433 -0.01994970194)
(-0.01450648595 -0.01138809247 -0.02128854625)
(-0.02756184301 -0.00414860263 -0.02644096163)
(-0.02328592425 -0.008653006069 -0.02057769589)
(-0.02769592155 -0.01262570854 -0.01891207919)
(-0.0154451487 -0.0290178441 -0.02568733473)
(-0.01913740916 -0.02665989976 -0.02565002345)
(-0.01572483098 -0.02075547195 -0.02079132428)
(-0.0182761095 -0.005260207919 -0.003526179802)
(-0.006670682746 -0.0005375323508 -0.001347325713)
(0.07701123599 -0.0001407313291 -0.008349316852)
(0.06612102945 -0.01474694717 0.0007127084274)
(0.04131526357 -0.001787308913 -0.02215762262)
(0.03858013077 -0.006591246782 -0.01481128486)
(0.008616933316 -0.003027552073 -0.01900729819)
(0.01036973383 -0.01616179486 -0.00379080446)
(-0.01454292309 -0.01108991235 -0.01220828847)
(-0.006827692926 -0.01900846109 -0.007222128731)
(-0.02339525778 -0.01538767979 -0.01084807681)
(-0.01416247048 -0.02189467181 -0.008243054371)
(-0.02277818217 -0.01834886531 -0.01828238885)
(-0.01231154039 -0.01994110398 -0.02715230784)
(-0.02544809199 -0.01183936805 -0.03230360345)
(-0.02655533932 -0.01140733789 -0.02695231002)
(-0.03634475939 -0.01352640262 -0.01459893721)
(-0.02241522779 -0.03394949814 -0.01092575389)
(-0.01412619458 -0.03226589823 -0.01126359433)
(-0.004698272651 -0.02114581891 -0.02014318018)
(-0.009205081789 0.002160694761 -0.01491618255)
(-0.009238223785 0.006089310394 -0.012040437)
(0.07203799469 0.003167721672 -0.01123008149)
(0.06607307852 -0.01210311946 -0.00123129766)
(0.04468896523 0.00582219653 -0.02157426961)
(0.03638530006 -0.003182531083 -0.01102564733)
(0.00430795872 -0.0006620189055 -0.01480524081)
(0.007791734629 -0.01542607033 -0.001127734571)
(-0.01366800187 -0.003251966125 -0.01507309661)
(-0.00868064616 -0.009820055381 -0.008337191903)
(-0.02564723617 -0.006410023706 -0.009589348823)
(-0.01796783064 -0.02081348279 -0.002133671697)
(-0.0240015383 -0.02158675506 -0.01741359309)
(-0.009927706532 -0.02916574629 -0.02662985522)
(-0.0215784246 -0.01922914608 -0.04031268244)
(-0.0244900705 -0.01605776789 -0.03636590426)
(-0.04362277167 -0.01220634315 -0.01727560374)
(-0.02869774404 -0.03080069136 0.003002611584)
(-0.01005779428 -0.03038577427 0.00454350668)
(0.008660487264 -0.02309288358 -0.01813002322)
(0.001237059601 -0.0008642614062 -0.02852448152)
(-0.01292174741 0.003944661549 -0.02341609316)
(0.07075868305 0.006551160779 -0.01514100721)
(0.06788947848 -0.007582124289 -0.004862759854)
(0.04769959246 0.008620620221 -0.01985023418)
(0.03396219817 -0.004464831699 -0.006786617101)
(1.01919405e-05 0.001193516368 -0.01088672949)
(0.008533996601 -0.01293363919 -0.0013930902)
(-0.01058245341 0.001635256626 -0.0163527021)
(-0.009045319021 -0.00512214561 -0.009381187777)
(-0.03115314521 -0.0006077025196 -0.003235694372)
(-0.02485253895 -0.01833573147 0.003343469658)
(-0.02868389034 -0.01889295776 -0.007275380539)
(-0.01068531585 -0.03094980006 -0.0229081327)
(-0.0162097387 -0.02203308542 -0.03976093229)
(-0.02161603764 -0.02164184832 -0.04640396638)
(-0.04676021489 -0.01406834088 -0.02205161473)
(-0.03526048863 -0.02615629499 0.008067167973)
(-0.008661365541 -0.02590584109 0.01558262695)
(0.01620891795 -0.02609749891 -0.0160760706)
(0.01014237513 -0.01006234182 -0.03540028048)
(-0.01178627337 -0.003499934887 -0.02997833228)
(0.07136450932 0.01057641917 -0.01675856243)
(0.06746377705 -0.003733694387 -0.006663595999)
(0.04698251708 0.009060946973 -0.01799288033)
(0.03110983704 -0.009148405745 -0.003806021126)
(-0.001636452551 0.005235779265 -0.01100037453)
(0.008099814675 -0.009096996261 -0.002481640861)
(-0.008151028029 0.002733310839 -0.01721327515)
(-0.01023738632 -0.008521798909 -0.007966999296)
(-0.03497246036 -0.0006075662477 -0.003898696274)
(-0.03086410846 -0.01456474381 0.004818521431)
(-0.03291229103 -0.01041022275 -0.005587847386)
(-0.01218744664 -0.02374996151 -0.01714049993)
(-0.01501529897 -0.01900890867 -0.03823181449)
(-0.01887819106 -0.02752623455 -0.04959915598)
(-0.04680365444 -0.02026414814 -0.02984313143)
(-0.03703906723 -0.02474280785 0.003656911608)
(-0.01001919983 -0.02169828862 0.01464028396)
(0.01986469311 -0.02873524849 -0.0148669238)
(0.0173977707 -0.01912215864 -0.03483924196)
(-0.003630853001 -0.01157535062 -0.02832113425)
(0.07564648962 0.01289306075 -0.01492085093)
(0.06680634121 -0.001855947194 -0.005215986032)
(0.04399608658 0.008861328206 -0.01453237305)
(0.03123084961 -0.01252123325 -0.002706754797)
(7.043703411e-05 0.007591057186 -0.01115814147)
(0.006762939543 -0.007107864861 -0.002143084974)
(-0.01017992269 0.0001049281293 -0.01062597276)
(-0.01136489142 -0.01617072324 -0.005175507372)
(-0.03539978429 -0.003429522047 -0.00393350987)
(-0.03176829297 -0.01141013192 -0.001447131889)
(-0.03517997382 0.0004033212713 -0.006067804809)
(-0.01681223595 -0.01486445383 -0.01519837833)
(-0.018882759 -0.01463022071 -0.0301473985)
(-0.02250084549 -0.03373829902 -0.04599535725)
(-0.04477280731 -0.02768968564 -0.0317264959)
(-0.03624212081 -0.02594905328 -0.008105403669)
(-0.01150034408 -0.01770639359 0.004451582504)
(0.01799452121 -0.02842898447 -0.01560339542)
(0.02240148148 -0.02332716039 -0.02621374145)
(0.009689142069 -0.01662511155 -0.0203068249)
(0.07922800953 0.01349158376 -0.01068819535)
(0.06462092548 -0.0029925592 -0.00166134502)
(0.03960133877 0.01118091689 -0.01318397501)
(0.03019617533 -0.01200046747 -0.003674386802)
(0.002196743211 0.008495654318 -0.01379130047)
(0.002828201387 -0.006155003964 0.0001770380793)
(-0.0145677363 0.001447014786 -0.004264684921)
(-0.01267787325 -0.01716980375 -0.00108209089)
(-0.03160230735 -0.002043418938 -0.009907795625)
(-0.02815559642 -0.007653333051 -0.01032594771)
(-0.0353453114 0.006106720852 -0.01431912903)
(-0.02286498588 -0.01047794097 -0.01453823236)
(-0.02834642581 -0.01509003875 -0.02354406819)
(-0.02809456535 -0.03820393432 -0.0347789855)
(-0.04128212192 -0.03141424355 -0.03103410271)