/*--------------------------------*- C++ -*----------------------------------*\
| =========                 |                                                 |
| \\      /  F ield         | OpenFOAM: The Open Source CFD Toolbox           |
|  \\    /   O peration     | Version:  5.x                                   |
|   \\  /    A nd           | Web:      www.OpenFOAM.org                      |
|    \\/     M anipulation  |                                                 |
\*---------------------------------------------------------------------------*/
FoamFile
{
    version     2.0;
    format      ascii;
    class       surfaceScalarField;
    location    "4.8";
    object      phi;
}
// * * * * * * * * * * * * * * * * * * * * * * * * * * * * * * * * * * * * * //

dimensions      [1 0 -1 0 0 0 0];

internalField   nonuniform List<scalar> 
91025
(
-1.050523913
-0.03392557525
-0.08962954657
-1.032416733
-0.2287651843
0.1095326588
-0.8028722513
-0.2606605944
-0.0552113911
-0.5808969343
-0.3834080465
0.08481414009
-0.2540725824
-0.3546164708
-0.02033970563
0.05304323514
-0.364160684
0.1089365405
0.3662960422
-0.2334403224
0.03419553896
0.6146869567
-0.1614791477
0.1213688232
0.806782558
-0.003937344341
0.128608595
0.9304016592
0.05464448119
0.1929467489
0.932510663
0.1024186052
0.1222080661
0.7158383697
0.04081803692
0.103780728
0.3277294871
0.05593649546
0.09628296285
-0.01876599064
0.08428599389
0.1738486931
-0.2381895566
0.1877749643
0.2224439492
-0.2530797357
0.2397949992
0.2378698517
-0.1653164836
0.3197651343
0.2274315792
0.002797237641
0.3077319437
0.1904922987
0.109543522
0.2557877519
0.1314938878
0.0886164135
0.04281152579
-1.113593355
-0.05852360717
-0.09295595644
-1.082079749
-0.4176849549
0.1041077723
-0.8354821319
-0.4515198593
-0.05178620581
-0.5910394465
-0.6716729134
0.1007707307
-0.2323622413
-0.5988137632
-0.003313455736
0.09707997689
-0.6239214408
0.1184936133
0.4285988076
-0.4109486965
0.04093588729
0.6750449171
-0.3195135943
0.1183620189
0.8489186669
-0.05860239864
0.1101983865
0.9398104621
0.03971076711
0.1699710483
0.9141102209
0.1616375332
0.1202267008
0.7047613264
0.09256306776
0.1194563181
0.3476925287
0.1481111433
0.1177806113
0.01908824231
0.1958039135
0.1777744557
-0.1972072824
0.3685585884
0.2153693783
-0.2231708988
0.430072658
0.226809793
-0.1610686734
0.541475346
0.2161914605
-0.03452854085
0.4970318953
0.1780564266
0.02807885002
0.4069649533
0.1181374095
0.131501643
0.03638099689
-1.232146942
-0.06734507507
-0.09463253446
-1.170979964
-0.5468094985
0.09772377147
-0.8936972683
-0.5403354292
-0.04222224034
-0.6097734964
-0.8179740292
0.126634995
-0.203531471
-0.6822623685
0.01246657024
0.1610369837
-0.7418658234
0.1310446833
0.5186254157
-0.5081802818
0.04872805991
0.7685081705
-0.4749212832
0.1166099804
0.9255340201
-0.1732460828
0.07616541695
0.9735924439
-0.06951685682
0.1374020562
0.9097500254
0.155953719
0.1049736019
0.711255357
0.1369812474
0.1467354622
0.3971715293
0.2720123475
0.136763263
0.07984561149
0.3146430994
0.1825627684
-0.140323233
0.5196544849
0.1978895249
-0.1868738377
0.539292242
0.2114846798
-0.1642721309
0.6370761927
0.1990095842
-0.096391319
0.5262130114
0.1587442219
-0.0909940124
0.4206934016
0.0983427762
0.1108030731
0.02680069652
-1.368616232
-0.0578599375
-0.09240751043
-1.264310601
-0.6096612911
0.09701614724
-0.9441739963
-0.5272697526
-0.02997444678
-0.6169350856
-0.8233638084
0.151512109
-0.1666756101
-0.6186774374
0.02103290047
0.2232275023
-0.7443775731
0.1365879826
0.6008587891
-0.5336087567
0.06142939015
0.8667812078
-0.6057149713
0.1146904292
1.027143314
-0.3120779373
0.05614543127
1.045408285
-0.2258513326
0.1060105019
0.9387401195
0.09086564873
0.1074674005
0.741587932
0.14490524
0.1656267624
0.4480568397
0.3758083815
0.1605071977
0.1363218488
0.3968445877
0.1766396543
-0.09998127209
0.5939294444
0.1848011369
-0.1768621952
0.5509883477
0.1937713367
-0.1948298982
0.6124651187
0.1841313902
-0.1806759499
0.4316687478
0.1382156221
-0.2178065775
0.3315698796
0.08086284739
0.04568068124
0.01857774487
-1.52225513
-0.02300650345
-0.08638256016
-1.359729556
-0.6088931261
0.1043504944
-0.9912038829
-0.4259082644
-0.02017218631
-0.62460556
-0.7299095077
0.1640516265
-0.1516333579
-0.4576849567
0.01542019683
0.2496137575
-0.6753174308
0.1358413581
0.6394916483
-0.479452143
0.06144576821
0.9395233247
-0.6714058275
0.1216677828
1.13126162
-0.3849659986
0.03572458585
1.150108575
-0.3683842373
0.1011938277
1.031711603
0.01158431792
0.09266020659
0.814247718
0.08820601685
0.1869312111
0.5161765154
0.4043767046
0.1499006659
0.1899216902
0.3726193033
0.1665891889
-0.07645210983
0.5586347417
0.1622889097
-0.1877408191
0.4533509744
0.1821426712
-0.244012235
0.5113795042
0.1695377051
-0.260306332
0.2835159475
0.1237233573
-0.3150331475
0.218694217
0.06897779386
-0.02752846813
0.01370441228
-1.646107688
0.03739845623
-0.07693612989
-1.420762284
-0.5462722144
0.116309118
-1.002746864
-0.259344771
-0.01183243739
-0.6107888371
-0.5794973447
0.1600486299
-0.1423682379
-0.2464544359
0.005721386923
0.2513586269
-0.5521287388
0.1252986624
0.6504838729
-0.3411790068
0.06490326993
0.9904759547
-0.6174493215
0.1236812366
1.220984296
-0.3415512127
0.05168650648
1.267610457
-0.4308124583
0.1060133256
1.147781094
-0.05971124273
0.1131906967
0.90299102
-0.02837439088
0.1788344833
0.5699140008
0.3010491257
0.142523429
0.2139278369
0.2156942424
0.1425128858
-0.08205264434
0.3966007109
0.1547997549
-0.2285794164
0.2681774131
0.1729161942
-0.3151764884
0.3626483606
0.1621128878
-0.3445674779
0.1525331459
0.1151694985
-0.3839668268
0.1492365692
0.06556339341
-0.06219974597
0.01411091074
-1.759229358
0.1270585822
-0.06669109136
-1.472899395
-0.4303952208
0.1284608446
-1.014951407
-0.02996289202
-0.007630177508
-0.6072999357
-0.3901072551
0.147294542
-0.159098446
0.01641033997
-0.009415418315
0.2228439646
-0.3690865069
0.1145741258
0.6358516855
-0.08761599621
0.05384485278
1.010766369
-0.4316370074
0.1345242513
1.280890648
-0.1465273742
0.06433648979
1.364715528
-0.3891944303
0.1402193069
1.2681079
-0.07866925857
0.1034186573
0.9962383185
-0.1901093515
0.1733332753
0.623867149
0.1041241504
0.1062695048
0.2376988505
-0.04945601285
0.1317865234
-0.07811162802
0.1488553378
0.1477151536
-0.2458648875
0.01496010307
0.1751980844
-0.3577728534
0.1842111507
0.1537010518
-0.393360054
0.03174499213
0.1105193766
-0.4195673076
0.1244230664
0.06739047355
-0.06613197318
0.01892930518
-1.805911973
0.2344566741
-0.05762509521
-1.47931896
-0.2748784073
0.1371702143
-0.9942900508
0.2402068971
-0.001770443154
-0.5858957058
-0.154824588
0.1328233805
-0.166123862
0.3172689371
-0.01829726777
0.2030086451
-0.09684364714
0.1004174353
0.6262459505
0.2595409083
0.05017150313
1.012959432
-0.127227856
0.1354149549
1.292412235
0.1523420442
0.1005311061
1.400786968
-0.2451024166
0.1601946114
1.314943353
-0.0431577288
0.1255296608
1.046050276
-0.3480680005
0.1454537568
0.6424003214
-0.1235311557
0.09978050296
0.2432576945
-0.337660662
0.1205022195
-0.07275054538
-0.1232669198
0.163609883
-0.2500460982
-0.2537843451
0.1764981436
-0.3680815114
-0.0272567002
0.1487586319
-0.4199637219
-0.1140758737
0.106037572
-0.4469660247
0.07328808371
0.07029388795
-0.07084232197
0.02407273706
-1.822372528
0.350197995
-0.05300105167
-1.475811347
-0.09815553182
0.1388838524
-0.9843483777
0.5402334675
-0.002313708249
-0.578570419
0.1038404319
0.1208340681
-0.1758414941
0.6589625344
-0.03083215195
0.187105923
0.2216321619
0.09016366204
0.6142567032
0.6560496798
0.0374505661
0.9904008353
0.2020438679
0.1370165799
1.252648183
0.4656560721
0.1079238013
1.358393386
-0.07679984711
0.1819668805
1.297486472
0.03166497963
0.1330258577
1.045385832
-0.4658448216
0.1462234269
0.6529477358
-0.3146604433
0.0923233687
0.2610738253
-0.6035926451
0.1323154197
-0.04025470631
-0.360198039
0.1721473611
-0.2098093659
-0.5041792098
0.180140388
-0.3264817887
-0.2400439772
0.1411736426
-0.3900561579
-0.3089410254
0.1023932184
-0.4442863813
-0.03917501639
0.07225385179
-0.1131958466
0.02779947351
-1.750690996
0.4584203255
-0.0527143919
-1.411865427
0.07825353068
0.1274320432
-0.9338729976
0.8373062828
-0.003251224311
-0.5390848933
0.3694208455
0.1078992587
-0.1525025407
1.003620249
-0.03608714843
0.1922421091
0.5447237069
0.07531933877
0.5935376935
1.029799318
0.03539362612
0.9391139445
0.4861222415
0.1244801174
1.159890118
0.708426297
0.1111270125
1.245073315
0.05892182635
0.1709594058
1.189623816
0.1116754497
0.1450051861
0.9761153945
-0.5125647737
0.1409934024
0.6203802122
-0.4283003564
0.1124213058
0.260289632
-0.7852711496
0.1436092624
-0.01914957459
-0.5363646432
0.1833919437
-0.176984531
-0.6988131131
0.1755467631
-0.2792058338
-0.4293808538
0.1383665596
-0.3409310219
-0.5196390971
0.1025715084
-0.4066497759
-0.2030418628
0.07670514643
-0.1944598228
0.03066795407
-1.648247742
0.5494159459
-0.05901303865
-1.339955483
0.2252470276
0.1057881458
-0.8911131164
1.097775872
-0.01612756149
-0.5076688522
0.6057495178
0.09089821024
-0.1352515977
1.308872961
-0.0504663328
0.183115744
0.8016751414
0.06124174239
0.5478733896
1.316495871
0.02356288814
0.8529887684
0.6602011454
0.1115875773
1.042612267
0.8506097233
0.08914154499
1.099593858
0.1315868334
0.154491072
1.047037331
0.1863799448
0.1377336069
0.8737807267
-0.5020680943
0.1542873328
0.579517048
-0.4571518161
0.1313718197
0.2675974586
-0.8912147017
0.1620942612
0.01022666225
-0.6562681553
0.1818318059
-0.1320423401
-0.8339368007
0.1706649599
-0.2221130897
-0.5455354914
0.1382449756
-0.2634075345
-0.6662393871
0.1088271536
-0.3087050815
-0.3314646144
0.08595684367
-0.2691503069
0.03420327484
-1.460458497
0.6102253778
-0.06275300771
-1.204723894
0.310371489
0.07507386094
-0.8036386622
1.284933435
-0.03075841009
-0.4468905081
0.7830004124
0.0692743641
-0.09926325705
1.529880237
-0.0505092311
0.1755688899
0.9567450483
0.04917963377
0.4721631366
1.47578084
0.02407175891
0.726683413
0.7438334471
0.09279023718
0.8902407995
0.9236112391
0.07582863587
0.9326350063
0.1661492865
0.1216357357
0.8694941048
0.2514478302
0.1298894902
0.7277150665
-0.4469763823
0.1531465954
0.4917469715
-0.4191087179
0.154589621
0.2429918391
-0.9242584287
0.1699610537
0.02210458295
-0.7151444739
0.1779008051
-0.109075617
-0.9054221918
0.1597133229
-0.1886532069
-0.5648398555
0.1376503061
-0.1982285375
-0.677716244
0.1169145393
-0.1827810854
-0.3410044109
0.09341717323
-0.2831426635
0.03945855956
-1.274046997
0.6436294003
-0.06727643069
-1.076013362
0.3194507922
0.04440345322
-0.7284939748
1.384508958
-0.05807342423
-0.4100038829
0.8599244257
0.04313354982
-0.09057375117
1.639914816
-0.05671778072
0.1368650316
0.9866531484
0.04185269599
0.3718581249
1.52507339
0.01185677522
0.58267122
0.7663315301
0.07993665729
0.7373384852
0.9738726363
0.05701057354
0.7808278149
0.1912631677
0.1007916483
0.7168119477
0.311833975
0.1119462267
0.5848397609
-0.3785443384
0.1542139749
0.4012277715
-0.3314336237
0.1663895023
0.2170592783
-0.8734800157
0.1801689075
0.05200347521
-0.6815793056
0.1725995688
-0.05221053333
-0.8960947717
0.1517159879
-0.1301788769
-0.5096389488
0.1342239887
-0.1166644343
-0.5834434094
0.1136918438
-0.04667620592
-0.2027983058
0.09490695953
-0.2219309093
0.03730398364
-1.035637176
0.6477557881
-0.06408476158
-0.8950791275
0.2685543951
0.0170410303
-0.6133230351
1.393196559
-0.07500508736
-0.3479456171
0.8375816848
0.01843468662
-0.07891557218
1.641184586
-0.04023883504
0.1011874703
0.930820474
0.04203791749
0.2708029021
1.509330082
0.01888889624
0.43397713
0.7702341494
0.06886616279
0.5710730402
1.045707551
0.05952524109
0.6270486861
0.2436609463
0.08524790473
0.5602900393
0.3792815716
0.1019418278
0.432396077
-0.2932551865
0.1430269584
0.2758437561
-0.1828619208
0.1719720299
0.1583748556
-0.7136996715
0.1810760289
0.06443956617
-0.5289391539
0.1694071173
0.003237920722
-0.7976206851
0.1429921062
-0.0566803685
-0.421012619
0.125187249
-0.03716621917
-0.4612603584
0.1039861856
0.04856104247
-0.02758713411
0.07832864964
-0.1325280552
0.03149061869
-0.8442563874
0.6407941583
-0.06268470528
-0.7487201484
0.1834252895
-0.0001561465297
-0.5280219361
1.338888222
-0.09331938303
-0.3179403361
0.7381539539
0.0006408954515
-0.09709217116
1.582280521
-0.03421169036
0.05712078087
0.8345699335
0.04770919024
0.1891038142
1.473434437
0.01071958903
0.3111510408
0.7714457683
0.06026982345
0.4260997141
1.141810094
0.05242966964
0.483133125
0.3260169395
0.08232955124
0.4402611616
0.4722940584
0.08769876383
0.3193509925
-0.1761403981
0.1297512422
0.1877122288
0.02741224659
0.1612646167
0.1106848144
-0.4429419725
0.1780344187
0.08098190461
-0.2481423403
0.1677425765
0.07612503831
-0.6073297535
0.1395097902
0.04968157945
-0.3113976552
0.1225978424
0.0618360034
-0.3824724363
0.08814280949
0.1085879082
0.08687402841
0.05498100116
-0.07238668424
0.01538490424
-0.625876986
0.6280070946
-0.05268246354
-0.5697894693
0.09802041558
-0.01133520891
-0.4129150505
1.25827963
-0.08387776483
-0.259627673
0.616627689
-0.008670841977
-0.08906070994
1.493103652
-0.00999468437
0.04229538703
0.7519292234
0.05444073832
0.1400572257
1.440001625
0.02363467883
0.210954896
0.7694391968
0.05006666715
0.2754568782
1.207003783
0.05967809812
0.3227740196
0.4185674967
0.07989745308
0.3099243216
0.5964851077
0.08513136401
0.2211146368
-0.02399670839
0.1070681099
0.1058095809
0.2671357404
0.1370863863
0.04062246007
-0.139294857
0.1538171581
0.04128038246
0.08540594445
0.1546728959
0.09283573284
-0.3400239228
0.1383431108
0.1303840252
-0.1491925595
0.1232681734
0.1496951525
-0.3165783575
0.08317707089
0.1376112848
0.1117615244
0.02803628181
-0.06822351247
0.0004105692556
-0.4755632369
0.6189355909
-0.04678392241
-0.4452582533
0.02040127515
-0.01107792542
-0.3405430075
1.18951439
-0.07432538509
-0.2331241357
0.5120193712
-0.009006400661
-0.09571046016
1.433588399
-0.009177951942
0.02883052009
0.7003332249
0.05508892655
0.1163362746
1.413806755
0.01529779425
0.1442499561
0.7315660864
0.0363697325
0.1618484819
1.220459059
0.03957570318
0.1980760632
0.4939390688
0.07102242178
0.2256201146
0.7457676754
0.06955652896
0.1895429835
0.1491911065
0.08417079265
0.09083339641
0.4735897987
0.0969669461
0.006073178322
0.102379235
0.1136840585
-0.01182394322
0.3708797561
0.1288740732
0.07009810128
-0.03502249195
0.1351141019
0.1777855134
0.1168135332
0.140197516
0.2276994487
-0.1753369066
0.09082189393
0.1729055215
0.1326338426
0.02026166887
-0.09521619675
-0.01504190345
-0.2994654743
0.6105834056
-0.03123198207
-0.2895220622
-0.03384050751
-0.007289153609
-0.2297089974
1.1268956
-0.04054218747
-0.1626637054
0.4361573171
-0.001555252339
-0.05719389745
1.400653649
0.006946643283
0.04037991798
0.6788051917
0.04657332557
0.1003132703
1.385835369
0.0250554056
0.08772950853
0.6562766469
0.02394224178
0.06233019868
1.168847719
0.03391036428
0.08668625179
0.5261147029
0.05432743114
0.1321211861
0.8794414002
0.05897982892
0.1393234901
0.3036503212
0.05467613428
0.06188448592
0.6043231679
0.05607599679
-0.04166419553
0.2083522648
0.06299220819
-0.08234620606
0.541993003
0.08912560847
-0.003565527602
0.2322927755
0.1186084748
0.1499588703
0.4421139796
0.1369125014
0.2433874376
0.0727285808
0.1034470191
0.182390083
0.1964956677
0.01773823184
-0.1196551383
-0.0157276513
-0.1955361063
0.6110046587
-0.0216769886
-0.1933713991
-0.06717359812
-0.001729377222
-0.1657999289
1.089941755
-0.02629110403
-0.1181017891
0.4145099314
0.002936932899
-0.04205332887
1.394417862
-0.005087296959
0.03149288123
0.6660498688
0.02594642104
0.07454761451
1.349701685
0.005738229839
0.05325001064
0.5663864336
0.008904353245
0.0258211152
1.102484384
0.007192868285
0.0403491004
0.5253183115
0.03199734985
0.08903681613
0.9672569195
0.03118436006
0.1135617289
0.4017344332
0.0278480497
0.06253071284
0.658897715
0.02078809206
-0.03247373085
0.2140975413
0.02276541108
-0.08255295472
0.6080362223
0.05018075495
-0.0273476425
0.4072273415
0.08106198332
0.09844100032
0.7245383762
0.106287411
0.1882314644
0.3345101651
0.08480792946
0.1504974241
0.29929275
0.02138393403
-0.1182135739
-0.01268647027
-0.03651035382
-0.002785965323
-0.03818741129
-0.001680621188
-0.03133462755
-0.0002666271479
-0.02426685525
0.0006926859989
-0.004162341891
0.007007891838
0.01822895459
0.01476071076
0.02505326164
0.01160948273
0.01217260909
0.00189755745
-0.01115110499
0.007129934939
-0.009856944696
0.01058743806
0.01522030933
0.0148367253
0.03824956386
0.007693619643
0.01833876639
0.001426741363
-0.0229320672
0.0006327841926
-0.05432046369
0.01130979392
-0.03524221579
0.03068338317
0.02164393048
0.04185105962
0.06789510782
0.04010258087
0.06080990881
0.01027374966
-0.003049523221
-1.01580686
-0.03821131784
-0.1690513909
-1.027180982
-0.2497505913
0.2389240773
-0.7881735288
-0.2369086838
-0.03318952175
-0.5467059886
-0.3148221491
0.3035811112
-0.203491086
-0.2894368999
0.04968374212
0.104418551
-0.3086030545
0.3664752553
0.4496551679
-0.1996735102
0.2503578591
0.7243339897
-0.1741805209
0.3598295513
0.8509433575
-0.08110797034
0.2954001626
0.8711073195
-0.02018335021
0.4497416356
0.8519706523
0.09670804376
0.3794481654
0.7232533801
0.1235733065
0.3437621563
0.4235678655
0.1295839026
0.2787009012
0.05896072094
0.108548375
0.3847171999
-0.2142968255
0.1590062287
0.4672317224
-0.2817633717
0.1998112426
0.4774311372
-0.2491891434
0.2741669531
0.423987077
-0.1384942488
0.2677056784
0.3440001392
-0.0557511494
0.2212608142
0.2360312621
0.07740913686
0.0911120026
-1.081337941
-0.0596209452
-0.1712516856
-1.059839688
-0.4388725109
0.2398509986
-0.8013145502
-0.4065774618
-0.03230441648
-0.5522493166
-0.5631491348
0.3165054662
-0.1912744762
-0.5139185627
0.08243876445
0.1357517847
-0.544998645
0.3759561083
0.4877730882
-0.3570449956
0.2535607392
0.7560987167
-0.3395062358
0.36537947
0.8943472124
-0.1832370122
0.2950588622
0.9126945757
-0.07206826573
0.4113208462
0.8719641092
0.1507468041
0.3546716684
0.7176358997
0.2163088684
0.3495664105
0.4174942211
0.2448479603
0.3084890229
0.07126275805
0.2227497873
0.3907486847
-0.1810776212
0.320518329
0.4567866303
-0.2535118802
0.3708869298
0.4555950441
-0.2432845939
0.4709872015
0.4026826323
-0.1704132761
0.4307549467
0.320633792
-0.1249140089
0.3499093263
0.2135138965
0.1135263727
0.07823245865
-1.197511285
-0.05612902847
-0.1703688785
-1.122275371
-0.5470538824
0.2466756926
-0.8329439811
-0.4874576669
-0.02792996856
-0.5675325852
-0.7207448604
0.3434084212
-0.1721660303
-0.6243773103
0.1052810106
0.1827904752
-0.6809209236
0.3777003665
0.5401216915
-0.4548969978
0.2473770747
0.8102843259
-0.4878544977
0.3783181222
0.9738828124
-0.2959961351
0.2751373636
0.9972339317
-0.1579191796
0.3643425308
0.9255220509
0.1421299099
0.2909347753
0.7260785584
0.2485124143
0.3684684981
0.4216561753
0.3320165683
0.3324193332
0.1010727006
0.3203262166
0.3994478264
-0.1372533677
0.4617348485
0.4225163546
-0.2210619005
0.4806368403
0.4221298142
-0.2481485419
0.5624359869
0.3696513205
-0.229436865
0.4544327544
0.2877678101
-0.2320383887
0.3588060687
0.179504364
0.09137717046
0.0597745054
-1.328758739
-0.03048175011
-0.1619631793
-1.195822698
-0.5804795538
0.2638678013
-0.8678197693
-0.4812563046
-0.02169069629
-0.5798454136
-0.7780111788
0.3698703584
-0.1434246093
-0.6111669126
0.10881483
0.2324363825
-0.7218259511
0.357927625
0.5869404564
-0.5006728454
0.2501952997
0.8709161514
-0.5941872275
0.3930421922
1.073642704
-0.376246578
0.2756034977
1.114104086
-0.2441418458
0.315830717
1.005594924
0.07245251071
0.26008918
0.7542880809
0.2005626838
0.3784915835
0.4355125923
0.3540329316
0.3684783922
0.1352479113
0.3681270268
0.3886498227
-0.1060573514
0.5424390785
0.3855531912
-0.2137046971
0.5105213018
0.3819757499
-0.2788400734
0.5519471148
0.3411398574
-0.3074310736
0.3698689241
0.2571907092
-0.3416640942
0.2835170585
0.1485349442
0.0326115372
0.04352839883
-1.471934428
0.01753685237
-0.1514953541
-1.283458197
-0.5522214536
0.2839752413
-0.9139513218
-0.3919181152
-0.01675045439
-0.5944169161
-0.7442665558
0.3858921801
-0.1268965703
-0.493690359
0.08741148434
0.262130456
-0.6940455765
0.3324847324
0.6118966192
-0.4755166827
0.2330050564
0.927658605
-0.6327812959
0.4125518161
1.178150485
-0.3654537033
0.2524579042
1.247567358
-0.3100189431
0.3046998204
1.113474567
-0.00463912919
0.1966448446
0.8130842786
0.06921950299
0.4133494697
0.4802968865
0.3049583954
0.3495938018
0.1827278962
0.31684849
0.3710726117
-0.08561911854
0.5275134546
0.3321805368
-0.2298971906
0.4387025117
0.3523276995
-0.3326665135
0.46928654
0.3153415907
-0.3830679032
0.2415588308
0.2386524482
-0.4275008683
0.1964105489
0.1289433705
-0.02718025857
0.03429061738
-1.586809145
0.0849987364
-0.1402840175
-1.354835849
-0.4764644552
0.2984156503
-0.9448821785
-0.2304206807
-0.008388239887
-0.5967383966
-0.6249569402
0.3803243331
-0.1156835992
-0.3040625395
0.06662302152
0.2740452377
-0.5974577177
0.3029754681
0.6316732415
-0.3635972498
0.2310430846
0.979471532
-0.5666444412
0.4111931983
1.265794545
-0.2553994346
0.2698453627
1.349766004
-0.3214786873
0.2994071305
1.202777324
-0.07866565211
0.2049847795
0.8837550669
-0.1002861281
0.3989229467
0.5411776691
0.1747022491
0.3372483728
0.2268418316
0.1642852181
0.3224827087
-0.07995912416
0.3944854977
0.3011664342
-0.2745365161
0.2767823883
0.3270389023
-0.4036414827
0.3325464884
0.3029486429
-0.457558496
0.1225485074
0.2296175833
-0.4840069652
0.147573411
0.1230851372
-0.04833143405
0.03328762089
-1.686569317
0.1681040203
-0.1336907876
-1.422449852
-0.374288326
0.3013908428
-0.9812226212
-0.009180767785
-0.007267282472
-0.6063246869
-0.439262044
0.3629122248
-0.1243272032
-0.05000636658
0.04395605721
0.2680516644
-0.4269977532
0.2865751421
0.6517842202
-0.1317777162
0.2094220923
1.027257792
-0.3920277422
0.4132319572
1.322720302
-0.05234374785
0.2677927994
1.404550791
-0.2853164874
0.3461209076
1.27225748
-0.08600179798
0.1630534452
0.9580371626
-0.2817564566
0.4088828838
0.6152355432
0.01088013119
0.2760720246
0.274728952
-0.06890010295
0.294783172
-0.07319502524
0.1726701007
0.273200493
-0.3062994041
0.02872269335
0.322276496
-0.4493654499
0.1577194969
0.2902416488
-0.4965688585
0.005988956789
0.2218747946
-0.5146193519
0.1318240253
0.119846412
-0.04640257444
0.03537898425
-1.725187542
0.2540592414
-0.1300707564
-1.44542896
-0.2539024045
0.2891765819
-0.9903579702
0.2485692208
-0.007509276374
-0.6055023612
-0.1984400465
0.3363063936
-0.1325061476
0.2562540355
0.0352074352
0.2624188859
-0.1569522334
0.2675925364
0.672162973
0.2127762
0.196610805
1.050285491
-0.1151738363
0.3873452434
1.323747913
0.2093866088
0.2848291067
1.384717366
-0.1897492479
0.3539353618
1.281044716
-0.02774640502
0.1784560198
1.004226016
-0.4046251077
0.3569555946
0.6719756712
-0.1484384471
0.2468144122
0.3076831101
-0.3202968689
0.2552020514
-0.06974827997
-0.08435045679
0.2777835963
-0.316995013
-0.2459845297
0.3160204481
-0.4540111161
-0.04677850316
0.2806932799
-0.5013290854
-0.1308799297
0.205766096
-0.5338155684
0.09514210387
0.1116732234
-0.05370442924
0.03608031869
-1.733984332
0.3409029832
-0.1310228669
-1.44958666
-0.1286718435
0.2689521281
-0.9966041035
0.5201570792
-0.01866909054
-0.607312381
0.05991473007
0.3101670216
-0.1382837213
0.6023654103
0.01552053621
0.2670973989
0.1611251756
0.2508721489
0.6866089142
0.6022913451
0.1754448184
1.053735949
0.1739822725
0.3674675355
1.291592247
0.4447427938
0.2869402697
1.330676543
-0.09755473143
0.381349522
1.23288723
0.03387326891
0.2522229814
1.004611971
-0.4769279051
0.3708875607
0.6946784131
-0.2777580544
0.2429666892
0.3261793749
-0.5683092141
0.2622085216
-0.0543384766
-0.3388378074
0.2844915916
-0.2923500006
-0.5198832142
0.3193310604
-0.4130853114
-0.2469724504
0.2660637642
-0.4634181885
-0.3078946896
0.1885361286
-0.5322930712
-0.004820077823
0.1018271123
-0.1044270221
0.03488835433
-1.669395721
0.424261247
-0.1297428995
-1.390125627
-0.002620645501
0.239555561
-0.955732043
0.7798939307
-0.02409923989
-0.5773102924
0.3120212544
0.2783291688
-0.1217831656
0.9534225405
0.0002356927146
0.2739961923
0.485702286
0.2161260329
0.6648884378
0.978605592
0.1633584926
0.9952079708
0.4222337575
0.3276576355
1.195557297
0.6353554034
0.2624893606
1.215069098
-0.02685758453
0.3513310827
1.136387115
0.1007449221
0.263179125
0.9612435644
-0.4953629977
0.347939117
0.6750307614
-0.3459473177
0.2585507653
0.3204913827
-0.7531529397
0.2619679517
-0.03971419581
-0.5468371194
0.2946110037
-0.2570091054
-0.7432308685
0.3081460936
-0.3541231709
-0.4231184733
0.2532868891
-0.4052654953
-0.5000216997
0.1776996195
-0.4979186975
-0.1572302888
0.09739527143
-0.1911328012
0.03708902635
-1.582207549
0.5072020938
-0.1326473399
-1.317262931
0.102022748
0.206929971
-0.9068100072
1.00288471
-0.04347502881
-0.5409732781
0.5300413082
0.2408022471
-0.1006945017
1.270508476
-0.03784371683
0.2695226519
0.7556053446
0.1786559064
0.6192766133
1.264826108
0.1382415453
0.9054409361
0.5841921115
0.2943471992
1.083468776
0.7534367317
0.2275146429
1.100660074
0.01279282469
0.3110714674
1.023341612
0.1478592969
0.2796549683
0.8689053826
-0.4855200985
0.36117044
0.6160486131
-0.3727394736
0.2944105349
0.2939923759
-0.8750426607
0.2916090577
-0.02152618682
-0.6889477876
0.3004240182
-0.2058365174
-0.9001924248
0.2986761283
-0.2880484472
-0.5386087302
0.2448323052
-0.3298313994
-0.6503313006
0.1795156136
-0.4145198696
-0.2915235627
0.1105624532
-0.2742044786
0.04390432304
-1.423562122
0.5722189664
-0.1238280139
-1.185137239
0.1747563253
0.1682953696
-0.8077850717
1.165109705
-0.05612744154
-0.4673608412
0.6905916155
0.1919284702
-0.06765930827
1.516074989
-0.05043841536
0.2492204131
0.9345936362
0.1424211217
0.5270063959
1.440060247
0.122156568
0.760370445
0.679631126
0.2504134861
0.9223506931
0.8447940232
0.1880324724
0.9542335686
0.05003790632
0.2466291297
0.8928007792
0.2003640015
0.2455698246
0.7453258538
-0.4536593379
0.3343299718
0.5191610867
-0.3514601305
0.3161269124
0.2467279589
-0.9208719435
0.3028721361
-0.00933968625
-0.7473930226
0.300241399
-0.159192768
-0.9769637638
0.2777084755
-0.2339568967
-0.5735351227
0.235091328
-0.2611456007
-0.7001823811
0.1890182372
-0.2970108441
-0.3324298831
0.128897772
-0.3074937537
0.05676782844
-1.267953199
0.6220059663
-0.1215551726
-1.061578993
0.2006564114
0.1252426337
-0.711466324
1.265632747
-0.09287608221
-0.3981286266
0.7680240794
0.1366131572
-0.04918569262
1.652671846
-0.07233673599
0.2040480039
0.9941107873
0.1198562182
0.4216491028
1.505196631
0.08628109594
0.6130218736
0.7192807073
0.2109115015
0.7716075111
0.9238226424
0.1544563707
0.8283956233
0.1069013925
0.2047795103
0.7687115934
0.2560093817
0.2198358671
0.6171623476
-0.4128946314
0.314602452
0.4102757467
-0.3063435502
0.327555424
0.1955595121
-0.889290029
0.3244379914
0.008739396019
-0.7130202351
0.3065563493
-0.09447989495
-0.9690872133
0.2672993935
-0.1730758863
-0.5310524183
0.2302445679
-0.1854952909
-0.6504564542
0.1919309189
-0.1650418999
-0.2560898642
0.1473102301
-0.2783872166
0.06182573978
-1.061509024
0.6447051015
-0.108047845
-0.8901484511
0.1889731063
0.0780995521
-0.5775125851
1.311109336
-0.1085710357
-0.3031609185
0.7704047701
0.08343983142
-0.03158997058
1.678340159
-0.05238126569
0.1473544607
0.959538226
0.1129414128
0.3073671172
1.499547445
0.07665363333
0.4581649273
0.7297602637
0.1687787548
0.59657434
1.01551662
0.1407977046
0.6708261348
0.1910683194
0.1732182312
0.6241570991
0.3319206911
0.1922268302
0.4796079169
-0.3584015106
0.2695584845
0.2844859255
-0.2106920136
0.3151989927
0.1275051015
-0.7685159792
0.327619328
0.01773783205
-0.5617320685
0.3134168802
-0.03444447072
-0.8567668122
0.2627840416
-0.09919673012
-0.4306937076
0.2188870269
-0.1061165367
-0.541784815
0.1807523524
-0.05129078933
-0.116376241
0.1325833382
-0.2159096459
0.05866277107
-0.8897796762
0.6567230028
-0.1067288361
-0.7504957592
0.1489855487
0.04446168542
-0.4766460987
1.321633369
-0.1344195723
-0.2391532135
0.7081939943
0.04251727899
-0.03689196737
1.622640765
-0.05482883441
0.09230680571
0.8643817673
0.1113080489
0.2191218049
1.464365725
0.04314928084
0.3422719063
0.7200148231
0.129446763
0.4514168966
1.102438703
0.112500445
0.524393497
0.2835164126
0.1631586387
0.4983089285
0.424789304
0.173139242
0.3698200226
-0.2734747493
0.233544181
0.1966643362
-0.0696360273
0.2842123866
0.07725215861
-0.5668981987
0.3201674266
0.03009553876
-0.3033054435
0.3203538492
0.02979445804
-0.6432007608
0.2681526656
-0.0114907311
-0.281878824
0.2200231721
-0.01453984077
-0.4248039612
0.1617014584
0.03230259978
0.004709919859
0.1050745916
-0.1619505316
0.03784222054
-0.6794652673
0.6551988585
-0.0889391998
-0.5740705701
0.1025196039
0.02014971919
-0.3575941041
1.302551884
-0.109153163
-0.1677847338
0.6192544651
0.01982893867
-0.02975830586
1.517837069
-0.02021195895
0.05900236374
0.7517463159
0.1112998875
0.1526340837
1.411823236
0.05625593222
0.2375124023
0.7025730224
0.09725344707
0.2990166421
1.146727075
0.1068491443
0.3512709089
0.3647453629
0.1532026457
0.3512618205
0.5348161412
0.1683772734
0.2613238811
-0.1561440891
0.1920407983
0.122248917
0.1029951343
0.238314381
0.02694369659
-0.327501326
0.2778681209
0.01503966021
-0.01017240761
0.2987554787
0.05490613614
-0.3745093549
0.2639336007
0.05244824596
-0.08866626366
0.2160357551
0.05355313336
-0.3091149789
0.1496248806
0.08106845461
0.08747578262
0.06352769977
-0.1361479184
0.01619920525
-0.5215297596
0.6563299264
-0.08388929792
-0.447463372
0.04852041114
0.0158269857
-0.2860833581
1.268885719
-0.09687172737
-0.1427137052
0.5280343438
0.01302521911
-0.03795659591
1.426679484
-0.03455084724
0.03322425314
0.6559905956
0.09847410123
0.1142309003
1.367269467
0.02942675857
0.1698320195
0.6549367398
0.06485839032
0.1926672168
1.139971805
0.05923613265
0.220525864
0.4150024938
0.1291145311
0.2434269915
0.6592704984
0.1414679514
0.2033156068
-0.0001465392618
0.155444869
0.1067121255
0.2878967553
0.1738942374
0.0202882219
-0.114110486
0.2129016586
0.004704869338
0.2415092173
0.2516250927
0.05682914343
-0.1137650846
0.2447354419
0.0901663574
0.1285595081
0.2228558512
0.1016794921
-0.1731598654
0.1453559665
0.1085760661
0.147364984
0.04750588903
-0.1283814412
-0.008720246426
-0.3306815879
0.6530257946
-0.05268135315
-0.2861342698
0.002426716721