/*--------------------------------*- C++ -*----------------------------------*\
| =========                 |                                                 |
| \\      /  F ield         | OpenFOAM: The Open Source CFD Toolbox           |
|  \\    /   O peration     | Version:  5.x                                   |
|   \\  /    A nd           | Web:      www.OpenFOAM.org                      |
|    \\/     M anipulation  |                                                 |
\*---------------------------------------------------------------------------*/
FoamFile
{
    version     2.0;
    format      ascii;
    class       volScalarField;
    location    "4.8";
    object      rho;
}
// * * * * * * * * * * * * * * * * * * * * * * * * * * * * * * * * * * * * * //

dimensions      [1 -3 0 0 0 0 0];

internalField   nonuniform List<scalar> 
30538
(
1.275669449
1.289457181
1.289541994
1.289500284
1.289512529
1.289551891
1.289624434
1.289688676
1.289753996
1.289830388
1.289936859
1.290041246
1.290129705
1.290184986
1.290204526
1.290147109
1.290035707
1.289917681
1.289874541
1.29352004
1.275676878
1.28948657
1.289571211
1.289525953
1.28952993
1.289559173
1.289623919
1.289689725
1.289763997
1.289846424
1.289951272
1.290051021
1.290133284
1.290180964
1.290193191
1.290137046
1.290036268
1.289930304
1.289895268
1.293520609
1.275772562
1.289510259
1.289594274
1.289544484
1.289535936
1.289546759
1.289598495
1.289666047
1.289752447
1.289843007
1.28994317
1.29003454
1.290109051
1.29014864
1.290151057
1.290097675
1.290012083
1.289923556
1.289898507
1.293595788
1.275799874
1.289538118
1.289624144
1.289571686
1.289551077
1.28954112
1.28957643
1.28964318
1.289737516
1.289832375
1.289924937
1.290005482
1.290073821
1.290108496
1.29010511
1.29005739
1.28998754
1.289916171
1.289899475
1.293565715
1.276072985
1.289568657
1.289657653
1.28960694
1.289578823
1.28955131
1.289568397
1.289627595
1.289720746
1.289812544
1.289894907
1.289965162
1.29002861
1.290062437
1.290061523
1.290024613
1.289969464
1.289910017
1.289897619
1.293704708
1.276206486
1.289597188
1.289693944
1.289650703
1.289618836
1.289579146
1.289577961
1.2896218
1.289702821
1.289785863
1.289858997
1.289920539
1.289977428
1.290010649
1.290018228
1.289997251
1.289956696
1.289906133
1.289892953
1.293650444
1.276700394
1.289629294
1.289733041
1.289700192
1.289667309
1.289619902
1.289603151
1.289626599
1.289687696
1.28975924
1.289826649
1.289880814
1.289925883
1.289952114
1.289967566
1.289964506
1.28993922
1.289896016
1.289880658
1.293791302
1.276963129
1.289661985
1.289774962
1.289753398
1.289720539
1.289669599
1.289641669
1.289644362
1.289684074
1.289743186
1.289806081
1.289852377
1.289881143
1.289892805
1.289906645
1.289917478
1.28990738
1.289872964
1.289859809
1.293691996
1.277686571
1.28970015
1.289817445
1.289806066
1.289774235
1.289721603
1.289687247
1.289677179
1.289699848
1.289743916
1.289798145
1.289833597
1.289843895
1.28983567
1.289840407
1.289856532
1.289859411
1.289837134
1.289832705
1.29375221
1.278090196
1.28973606
1.289856361
1.289854853
1.289827995
1.289778235
1.289742519
1.289724778
1.289733882
1.289761845
1.289800246
1.289821211
1.289815504
1.289788841
1.289778073
1.289788349
1.289800296
1.28979398
1.289803618
1.293567101
1.279050298
1.289770339
1.289888475
1.289897444
1.289882674
1.289841717
1.289808305
1.28978462
1.289779824
1.289785229
1.289799652
1.289805724
1.289791338
1.289755282
1.289729308
1.289725191
1.289739584
1.289749715
1.289777948
1.293487777
1.279595396
1.289792307
1.289910282
1.289933802
1.289937713
1.28991173
1.289882137
1.289851151
1.289826916
1.28980452
1.289792858
1.289784453
1.289768535
1.289733656
1.28969842
1.289678918
1.289688861
1.28971038
1.289754494
1.293226581
1.280801163
1.289806989
1.289921932
1.289961744
1.289987686
1.289980743
1.289955077
1.289911715
1.289864512
1.28981506
1.289780137
1.289759989
1.28974546
1.289716959
1.289679351
1.289651639
1.289654775
1.289679027
1.289733199
1.292981755
1.281487966
1.289811435
1.289926013
1.289979955
1.290024321
1.290035125
1.290011991
1.289955967
1.289888145
1.289819111
1.289769396
1.289738509
1.289722966
1.289699408
1.289666901
1.289639195
1.289637245
1.289658639
1.289713961
1.292657206
1.282905998
1.289817156
1.289924855
1.289987524
1.290040479
1.290061141
1.29003901
1.289975519
1.289897162
1.289821425
1.289765508
1.289724322
1.289701592
1.289680058
1.289657867
1.289637877
1.289632959
1.289646965
1.289697844
1.292251703
1.283703105
1.289819859
1.289919376
1.289983412
1.29003304
1.290052808
1.290030544
1.289968251
1.289894336
1.289823645
1.289767449
1.289716189
1.289682178
1.289661803
1.28965274
1.289644913
1.289637562
1.289647706
1.28969221
1.291887773
1.285285054
1.28982361
1.289906762
1.28996471
1.290002419
1.290011464
1.289989246
1.289938157
1.289881294
1.289824212
1.289770596
1.289712682
1.289669274
1.289649275
1.289655637
1.289659326
1.289651751
1.289657965
1.289700066
1.291335312
1.28615264
1.289817519
1.289881729
1.28992529
1.289949941
1.289946526
1.289927861
1.289893156
1.289857724
1.289817824
1.289770719
1.289714811
1.289671884
1.28965619
1.289672381
1.289681998
1.28967272
1.289679588
1.289716059
1.290960492
1.28788537
1.289748432
1.289832883
1.289758541
1.289847806
1.289735197
1.289815096
1.289732367
1.289797907
1.289742988
1.289757967
1.289700301
1.289695874
1.28968192
1.289721031
1.289714428
1.289723851
1.289707606
1.289742863
1.290337652
1.296257337
1.276591783
1.291692777
1.272859372
1.287418823
1.271792143
1.285330134
1.273541033
1.285726365
1.277426042
1.288190332
1.282293808
1.291485974
1.286630283
1.294050595
1.289141509
1.294803916
1.289274777
1.293635784
1.287817683
1.273063751
1.289422429
1.28954949
1.28953183
1.289565143
1.289592263
1.289655235
1.289721685
1.289795251
1.289864333
1.289964626
1.29006665
1.290146765
1.290172776
1.290174791
1.290127461
1.290032537
1.289915109
1.289883172
1.294623295
1.273075244
1.289456489
1.289580704
1.289555224
1.28957742
1.289599763
1.289660927
1.28972806
1.289805657
1.28988013
1.289979227
1.290077228
1.290154556
1.290179492
1.290172875
1.290120283
1.290030138
1.289926941
1.289906427
1.294654866
1.273155898
1.289487199
1.289607977
1.289570488
1.28957777
1.289591767
1.289646767
1.289712925
1.289796216
1.289877307
1.289971258
1.290059663
1.290132522
1.290159137
1.290143686
1.290084116
1.290002167
1.289918895
1.289914289
1.294753666
1.273203914
1.2895224
1.289642866
1.289595022
1.289589076
1.289592551
1.289636733
1.289698421
1.289785668
1.289868773
1.289952396
1.290025564
1.290094453
1.290125592
1.290108257
1.290045212
1.28997353
1.289910039
1.289918412
1.294801665
1.273452754
1.289558084
1.289679143
1.289627866
1.289614215
1.28960631
1.289635723
1.289688029
1.289773244
1.289852505
1.28992166
1.289977736
1.290040913
1.2900776
1.290066537
1.290009714
1.289950803
1.289901594
1.28991583
1.29495778
1.273628259
1.28958878
1.28971369
1.289667429
1.289651633
1.289633052
1.289645163
1.289683108
1.289760472
1.289831168
1.289886866
1.289927773
1.289982389
1.290018201
1.290016349
1.289976316
1.289933201
1.289893071
1.289905243
1.294986473
1.274115159
1.289619678
1.289747424
1.28971214
1.28969741
1.289669854
1.289664515
1.289685542
1.289748539
1.289809163
1.289854232
1.289885653
1.28992577
1.289952479
1.289955675
1.289937139
1.289911721
1.289876697
1.28988313
1.29511011
1.274470969
1.28964969
1.289782366
1.289761298
1.289749571
1.289715297
1.289694499
1.28969754
1.289743986
1.289795315
1.289833679
1.289856565
1.2898809
1.289889381
1.289890243
1.289888654
1.289879047
1.289848679
1.289852186
1.295062385
1.275240235
1.28968429
1.289819077
1.289811869
1.289803792
1.28976475
1.289729908
1.289720386
1.289753378
1.289794554
1.28982465
1.28983877
1.289843845
1.289832313
1.28982633
1.289834389
1.289835224
1.289810978
1.289815753
1.295068326
1.2757977
1.289717402
1.289855598
1.289861221
1.289858281
1.28981796
1.289774418
1.289757125
1.289779343
1.289807075
1.289825891
1.289824989
1.289814117
1.289786455
1.28977269
1.289779677
1.289784855
1.289769856
1.289783487
1.294890969
1.276866188
1.289751224
1.289889251
1.289906139
1.289910439
1.289873693
1.289828523
1.289806192
1.289816082
1.289826266
1.289824689
1.289807439
1.289785515
1.289752391
1.289732855
1.289731172
1.28973471
1.289732285
1.289762375
1.294706099
1.2776206
1.289776936
1.28991642
1.289944743
1.28995747
1.289929856
1.289890945
1.289864082
1.289855866
1.289841152
1.289816378
1.289784817
1.289759045
1.289729689
1.289706391
1.289693006
1.289692175
1.289702921
1.289751079
1.294403849
1.278991821
1.289799722
1.289934527
1.289973136
1.289994397
1.289981068
1.28995438
1.289920723
1.289888731
1.289845799
1.289800286
1.289761189
1.289737189
1.289714189
1.28968772
1.289664367
1.289660506
1.28968191
1.289744988
1.29400894
1.279926585
1.289813083
1.289941743
1.289989466
1.290018091
1.29002076
1.290006531
1.289965187
1.289908423
1.289841113
1.289783845
1.289743944
1.289724026
1.289703168
1.289673364
1.289644947
1.289639489
1.289667013
1.289736793
1.293612915
1.281551485
1.289823165
1.289937743
1.289992431
1.290027233
1.290041331
1.290035081
1.289986763
1.289911709
1.289831352
1.28977262
1.289735941
1.289718025
1.28969522
1.289663525
1.289635917
1.289630934
1.289657412
1.289724463
1.293025233
1.282610336
1.289824096
1.289923577
1.289982153
1.290020538
1.290037988
1.290032328
1.289981111
1.289901397
1.289821594
1.289768659
1.289735926
1.289716281
1.289690036
1.289661356
1.28964064
1.289636217
1.289656331
1.289711211
1.292565716
1.28442015
1.289821666
1.289900709
1.289957754
1.289996367
1.290009826
1.289998583
1.289950297
1.289880408
1.289812965
1.289769718
1.289740364
1.28971668
1.289688922
1.289668893
1.289659006
1.289656458
1.289666688
1.28970767
1.291818671
1.285541134
1.289810469
1.289869386
1.289916295
1.289951819
1.289955776
1.289941053
1.289901396
1.289852309
1.28980362
1.28977123
1.289745003
1.289720809
1.289696643
1.28968799
1.289687218
1.289684842
1.289688932
1.289714734
1.291348422
1.287521867
1.289736294
1.289818073
1.289736336
1.289842479
1.289729918
1.28981394
1.289721498
1.289784978
1.289727186
1.289760095
1.289724651
1.289735626
1.28971335
1.289742446
1.289729248
1.289748022
1.289722052
1.289741082
1.290537355
1.296018794
1.275732218
1.290528965
1.271248559
1.285423136
1.269857608
1.283030756
1.271811592
1.283912913
1.276312874
1.287337347
1.28187737
1.291663006
1.286759309
1.295058558
1.289443948
1.296141803
1.289295561
1.2947612
1.287406775
1.270461445
1.289409976
1.2895619
1.289554317
1.289637244
1.289651773
1.289687695
1.289763824
1.289864838
1.289919867
1.28997307
1.290053072
1.290129777
1.290140169
1.290109679
1.290054049
1.289979069
1.28988713
1.289892459
1.297916346
1.270456743
1.289441034
1.289593535
1.289580441
1.289641798
1.289657854
1.289703938
1.289779048
1.289874108
1.289931977
1.289989861
1.290065927
1.290139976
1.290152585
1.290119289
1.290057749
1.289981744
1.289897726
1.289912443
1.297944378
1.270566095
1.289467668
1.289626097
1.289601276
1.289636107
1.289655234
1.289710738
1.289777116
1.289860647
1.289924062
1.289987271
1.290052296
1.290118082
1.290136398
1.290103945
1.29003605
1.289959417
1.289887377
1.289914608
1.298166538
1.270561278
1.289498846
1.289669366
1.289631281
1.28964107
1.289666044
1.289723946
1.289771959
1.289841781
1.289913066
1.289978407
1.290024964
1.290076068
1.290101618
1.290077571
1.290007172
1.289932376
1.289874465
1.289912564
1.298188006
1.270866748
1.289533969
1.289710311
1.289664766
1.289660687
1.289687574
1.28973816
1.289766052
1.289824962
1.289901251
1.289960594
1.289983457
1.290016365
1.290046997
1.290035726
1.289971039
1.289905391
1.289860059
1.289904995
1.298539625
1.270979151
1.289564225
1.289742045
1.289697982
1.289693689
1.289716094
1.289749443
1.289760269
1.289814154
1.289889782
1.289939237
1.289939523
1.289953638
1.289981145
1.289977601
1.289927315
1.289878403
1.28984468
1.289889794
1.298493831
1.271583862
1.289597683
1.289766653
1.289732183
1.28973647
1.2897491
1.289759786
1.289758376
1.289808658
1.289876068
1.289910899
1.289898424
1.289898464
1.289914536
1.289911185
1.289876248
1.289847738
1.289823796
1.28986576
1.298781503
1.271888946
1.28962741
1.289790585
1.289771372
1.289786914
1.289787693
1.289774339
1.289762527
1.289807135
1.28986388
1.289887544
1.289867393
1.289856961
1.289856653
1.289846408
1.289824739
1.289812591
1.289795685
1.289834677
1.298588182
1.272856674
1.289660976
1.289818344
1.289816
1.289841521
1.289832424
1.289794052
1.289772557
1.28981196
1.289859096
1.289871027
1.28984394
1.2898236
1.28980783
1.289792543
1.289778388
1.289775165
1.289762653
1.289798099
1.298625773
1.273372521
1.289685692
1.289849943
1.289863472
1.289895822
1.289881527
1.28982303
1.289792711
1.289824371
1.289864082
1.289864035
1.289825149
1.289792815
1.28976793
1.289751996
1.289740765
1.289738186
1.289728929
1.289765867
1.29821907
1.274737104
1.289716057
1.289882889
1.289908443
1.289943721
1.289927831
1.289862778
1.289824399
1.289844604
1.289872849
1.289858891
1.289804418
1.289760856
1.289734802
1.28972303
1.28971189
1.289704753
1.289700004
1.289744908
1.29791533
1.275466093
1.289741996
1.289912904
1.289946328
1.289977446
1.289964314
1.28990898
1.289867661
1.289870794
1.289877958
1.289846991
1.289779694
1.289730519
1.289709121
1.289701792
1.289688043
1.289674877
1.289677871
1.289736707
1.297324765
1.277232029
1.289778022
1.289935592
1.289972409
1.289996509
1.289987322
1.289954621
1.289916595
1.289897473
1.289874205
1.289825695
1.289755784
1.289711656
1.289693936
1.289684632
1.289663446
1.289647118
1.289662242
1.28973644
1.296674061
1.278164163
1.289805121
1.289946129
1.289985077
1.290002798
1.28999895
1.289990618
1.289960369
1.289917211
1.289860815
1.289798175
1.28974035
1.289709855
1.289693328
1.289670841
1.289639787
1.289623339
1.289650165
1.289735857
1.29595056
1.280263547
1.289828767
1.289940467
1.289983202
1.290001052
1.290002287
1.290010191
1.289985397
1.289924725
1.289840972
1.289772763
1.289736052
1.289724267
1.289703876
1.289664373
1.289625108
1.289611525
1.289642932
1.289727538
1.295013392
1.28132349
1.289829957
1.289918672
1.289966389
1.289994033
1.289999444
1.290006567
1.289982314
1.289914416
1.289820249
1.289757276
1.289740664
1.289742939
1.289718797
1.289667983
1.289627647
1.289619708
1.289646697
1.289715925
1.294227767
1.283643548
1.289823146
1.289886664
1.289936123
1.289977456
1.289984955
1.289979683
1.289951022
1.289887879
1.289803128
1.289753676
1.289750251
1.289757496
1.289730793
1.289680779
1.289648435
1.289649478
1.289666065
1.289707415
1.29307867
1.284748444
1.289803126
1.289850971
1.289892891
1.28994175
1.28994662
1.289931076
1.28989885
1.289851178
1.289790286
1.289757801
1.289758762
1.289762429
1.289738151
1.289699935
1.289681223
1.289689595
1.289697478
1.289711294
1.29229343
1.287267033
1.289702043
1.289803906
1.289674928
1.28983862
1.289694043
1.289810928
1.289693164
1.289779556
1.289714882
1.289756439
1.289742824
1.289769602
1.289752477
1.289757165
1.289746369
1.289764239
1.289748615
1.289738754
1.291068355
1.297742398
1.272715561
1.291417797
1.267561667
1.285537255
1.266386369
1.282820737
1.269517353
1.283949928
1.275631163
1.287935173
1.28290534
1.292834479
1.289194989
1.296490084
1.292601662
1.297132587
1.292092166
1.294635457
1.289255547
1.26218615
1.289341902
1.289611176
1.28955307
1.289718559
1.289751784
1.289703836
1.28973405
1.289912397
1.290009416
1.289973195
1.289936855
1.290016447
1.290079583
1.290040938
1.289938729
1.289863367
1.289817787
1.289911399
1.302854477
1.262152097
1.289358436
1.289627916
1.289586271
1.289716777
1.289735514
1.289734393
1.289777255
1.289918163
1.289990979
1.289979386
1.289968723
1.290037447
1.290082452
1.290046863
1.2899562
1.289882177
1.289831929
1.289922385
1.303000377
1.262132314
1.289365383
1.289656754
1.289630614
1.289696155
1.289712914
1.289774034
1.289819922
1.289892946
1.289939017
1.289971584
1.289989379
1.290030171
1.290048008
1.290024045
1.289953496
1.289880953
1.289825261
1.289908185
1.30331973
1.262075221
1.289381721
1.289709603
1.289687526
1.289678238
1.289712433
1.289832218
1.289858134
1.289853105
1.289887553
1.289969774
1.290004395
1.29000592
1.289990926
1.289985703
1.289937501
1.289871089
1.289813896
1.28989099
1.303651514
1.262193554
1.289407215
1.289757094
1.289732344
1.289680868
1.289730649
1.289877468
1.289875295
1.289817362
1.289857098
1.289971331
1.290004897
1.289957679
1.289921351
1.289930836
1.289904112
1.289849218
1.289797172
1.289873003
1.304127878
1.262333207
1.289435712
1.289786878
1.289760441
1.289708054
1.289760871
1.28989957
1.289874023
1.289802115
1.289851387
1.289976976
1.289987785
1.289906876
1.289853651
1.289870372
1.289856823
1.289816926
1.289777508
1.289855092
1.304443547
1.262855324
1.289471219
1.289799919
1.28978007
1.28975195
1.289795165
1.289901375
1.289864316
1.289805392
1.289857376
1.289965766
1.289954489
1.289856024
1.28979903
1.289811024
1.289802501
1.289777318
1.289755693
1.289836377
1.304753104
1.263382641
1.289507793
1.289811302
1.289803851
1.289802346
1.289829646
1.289895776
1.289854586
1.289819265
1.289861872
1.28994452
1.289911137
1.289820394
1.289763318
1.289767495
1.289754058
1.289739338
1.28973256
1.28981482
1.304776627
1.264479918
1.289544963
1.289830162
1.28983789
1.289854649
1.289869553
1.289896388
1.289846955
1.28982589
1.289865988
1.289908741
1.289869392
1.289786602
1.289738244
1.289734354
1.289716734
1.289706207
1.289707538
1.289789878
1.30462639
1.26547356
1.289570868
1.289856947
1.289878523
1.289904686
1.289917236
1.289914412
1.289845386
1.28982736
1.289871008
1.289898683
1.289839228
1.289760809
1.289715738
1.289710824
1.289690632
1.289679686
1.289682345
1.289763022
1.304181345
1.267216999
1.289601948
1.289887664
1.289917663
1.289946328
1.289963051
1.289942492
1.289855222
1.289825224
1.289866813
1.289885743
1.289814635
1.289730088
1.289689939
1.289688391
1.289671675
1.289656818
1.289659599
1.28974018
1.30342204
1.268644483
1.289639249
1.289915089
1.289947864
1.289971125
1.289989973
1.289970045
1.2898775
1.289834499
1.289860821
1.289873158
1.289790231
1.289704641
1.289665814
1.28966983
1.289654889
1.289635164
1.289640097
1.2897239
1.30253495
1.271018615
1.289698857
1.289934318
1.289964411
1.289981265
1.289994435
1.289982578
1.28990587
1.289857783
1.289857613
1.289848354
1.289765209
1.289688702
1.289654743
1.289657096
1.289637447
1.289613115
1.289622827
1.289715446
1.301227292
1.272804111
1.289757451
1.289940904
1.289967772
1.289981034
1.289982801
1.289976844
1.289930889
1.289890986
1.289855944
1.289815654
1.289741954
1.289690712
1.289665422
1.289655514
1.289622195
1.289593933
1.289609613
1.289710188
1.300060525
1.275657157
1.289807684
1.289931524
1.289957481
1.289978895
1.289968935
1.289959563
1.289945356
1.28991809
1.289849228
1.289775777
1.289725369
1.289709221
1.289695693
1.289665001
1.289614742
1.289586175
1.289607344
1.28970528
1.298348577
1.277592291
1.289822446
1.289908402
1.289934369
1.289974785
1.289960079
1.289938446
1.289941415
1.289924014
1.289835427
1.289748722
1.289720004
1.289738071
1.289731218
1.289680758
1.28961914
1.289597925
1.289621204
1.289701441
1.29710105
1.280734991
1.28982
1.289877838
1.289902139
1.28995894
1.289951567
1.289918108
1.289916516
1.289901023
1.289817514
1.289737802
1.289727293
1.289761374
1.289757051
1.289696041
1.289636278
1.289629894
1.289653635
1.289702631
1.295126173
1.282661292
1.289797682
1.289846579
1.289864956
1.28992124
1.289923053
1.289892444
1.289872679
1.289855533
1.289796372
1.289743868
1.289740767
1.289772634
1.289764726
1.289708993
1.289663736
1.289673662
1.289697708
1.28971217
1.293926863
1.286032344
1.289665254
1.289787813
1.289579021
1.289771189
1.289593712
1.289735268
1.289604177
1.289737339
1.289687449
1.28974478
1.289730493
1.289785584
1.289780176
1.289775024
1.289743701
1.289768526
1.289759477
1.289745187
1.291862601
1.297059022
1.269656241
1.287656706
1.261992458
1.278864967
1.259802508
1.275000588
1.263762365
1.277830287
1.272102448
1.285282284
1.281993036
1.293921759
1.29034065
1.300555141
1.294412141
1.302328515
1.292757307
1.298736761
1.288005919
1.255394734
1.289260848
1.289741752
1.289591385
1.289695908
1.289843449
1.28981706
1.289662376
1.289800064
1.290011313
1.289989773
1.28984449
1.289848102
1.289943386
1.289941471
1.289821095
1.289720894
1.289706554
1.289903728
1.311644764
1.255270229
1.289261881
1.289712671
1.289615673
1.289746506
1.289809617
1.289807817
1.289732332
1.289839619
1.289987884
1.289976733
1.289869186
1.28987252
1.289937092
1.289933439
1.289841931
1.289756781
1.289733993
1.289911823
1.311840615
1.255189796
1.289259974
1.289704893
1.289669566
1.289757002
1.289754028
1.289818661
1.289841169
1.289875811
1.289915327
1.28993507
1.289895199
1.289879654
1.289888849
1.28988664
1.289839976
1.289781115
1.289746034
1.289890093
1.31256235
1.254899387
1.289274895
1.289737865
1.289754058
1.289728593
1.289700673
1.289910191
1.289985503
1.289875242
1.2898103
1.289900854
1.289943256
1.289888299
1.289825278
1.28982499
1.28982299
1.289792751
1.289748736
1.2898622
1.3130135
1.254996354
1.289299041
1.289777371
1.289813788
1.289709963
1.289682523
1.289989269
1.290071985
1.289859931
1.289722051
1.289887224
1.29000401
1.289895598
1.289758823
1.289755306
1.289789877
1.289783846
1.289740089
1.289831882
1.31410272
1.254898566
1.289322014
1.289808216
1.289839608
1.289726277
1.289709019
1.29003292
1.290083075
1.289838801
1.289681609
1.289891288
1.290043942
1.289905459
1.289715008
1.289698347
1.289748092
1.289755727
1.289722215
1.289807525
1.314449364
1.255536462
1.289360758
1.289823963
1.289846929
1.289771806
1.289750693
1.290042551
1.290058963
1.289833025
1.289695943
1.289958913
1.290025853
1.289883073
1.28968787
1.289664306
1.289707146
1.289717736
1.289701171
1.28978722
1.315243833
1.25591556
1.289392963
1.289834868
1.289857999
1.289823669
1.289790249
1.290026639
1.290024179
1.289853234
1.289733721
1.289881202
1.289968018
1.289838851
1.289677557
1.289652717
1.289676329
1.289683073
1.289681085
1.289772779
1.315060798
1.257391849
1.289432632
1.289852087
1.289883244
1.289865087
1.289829003
1.290016301
1.29000294
1.289865871
1.289767491
1.289851155
1.289904398
1.28979193
1.289667128
1.289646843
1.289653685
1.289654679
1.289663085
1.289756766
1.314963511
1.258379471
1.289455055
1.289879371
1.289918926
1.289890657
1.289871299
1.290035216
1.290001669
1.289865215
1.289782822
1.289837581
1.289872747
1.289765636
1.289656023
1.289635879
1.289634098
1.289631673
1.289644673
1.2897383
1.314007174
1.260815792
1.289500806
1.289912938
1.289952766
1.289906812
1.289915346
1.290069679
1.29000286
1.289840103
1.28976688
1.289831871
1.289856081
1.289746563
1.289637483
1.289616677
1.289614346
1.289610347
1.289624525
1.28971778
1.312789108
1.262361705
1.289544736
1.289936655
1.289971619
1.289918537
1.289946428
1.290084116
1.289992259
1.289810284
1.289761318
1.28983727
1.289844686
1.28972629
1.289619278
1.28959917
1.289596572
1.289589362
1.289603508
1.289697543
1.311136073
1.265756807
1.289626282
1.28994091
1.289969603
1.289935683
1.289963176
1.290055788
1.289958971
1.28980181
1.289772079
1.289839079
1.289817773
1.289706152
1.28961548
1.289598411
1.289587851
1.289573047
1.289584345
1.289682331
1.308906783
1.267721551
1.289689499
1.289926609
1.289950362
1.28995547
1.28996748
1.289986117
1.289907336
1.28981777
1.289800489
1.289818759
1.289770301
1.289688769
1.289633311
1.289619163
1.289592948
1.289566113
1.289573472
1.289671899
1.30684449
1.27182508
1.289757325
1.289905857
1.289923086
1.289972956
1.28996694
1.289915358
1.289864836
1.289850462
1.289832889
1.289794691
1.289725599
1.289684896
1.289672013
1.289654931
1.289609222
1.289572084
1.289576599
1.289669059
1.303929929
1.273938133
1.289780024
1.289888993
1.289891867
1.289970804
1.289961089
1.289866229
1.289837891
1.289875238
1.289856314
1.289776867
1.289703802
1.289697556
1.289713423
1.289689692
1.289627553
1.289590053
1.28959733
1.289673447
1.301805758
1.278408214
1.289798477
1.289880138
1.28986715
1.289936774
1.289941257
1.289854138
1.289826306
1.289872251
1.289854475
1.289773789
1.289708899
1.289718719
1.289738833
1.289707991
1.289642841
1.289617571
1.289633155
1.289685741
1.29855215
1.280469149
1.289785452
1.289870468
1.289848633
1.289878455
1.289895996
1.289860344
1.289822961
1.289835047
1.289823623
1.289774839
1.28973155
1.289739131
1.289745636
1.289710079
1.289659125
1.289651081
1.289676449
1.289702647
1.296551527
1.285215544
1.289574292
1.289814008
1.289417829
1.289706124
1.289400107
1.289718539
1.289505252
1.289708438
1.289674745
1.289766531
1.289744838
1.289785364
1.289798563
1.289787982
1.289762438
1.289754424
1.289755248
1.289743633
1.293232043
1.300435159
1.262711214
1.288831945
1.252984869
1.277918864
1.251147043
1.273212633
1.258091556
1.276913523
1.270449962
1.286108211
1.284509505
1.296708967
1.296547475
1.304574389
1.302745815
1.305431887
1.30000471
1.298789961
1.292568527
1.239884468
1.288849268
1.289955805
1.289840178
1.289339616
1.289595632
1.290217576
1.289788628
1.289269866
1.289577478
1.290122213
1.290071664
1.289699323
1.289569738
1.289708517
1.289745466
1.289649337
1.289597381
1.289839279
1.324732492
1.239578833
1.288850071
1.289859625
1.289741943
1.289674042
1.289772401
1.290025591
1.289844563
1.289640213
1.289720003
1.289959096
1.289930625
1.289740999
1.289649349
1.289709419
1.289729764
1.289669927
1.289637565
1.289864475
1.325378749
1.239021082
1.288868574
1.289764375
1.28969478
1.289913035
1.289850277
1.289801888
1.289946416
1.290017558
1.289812714
1.289719641
1.289772927
1.289797823
1.289719944
1.289674634
1.28967622
1.289676302
1.289669523
1.289853598
1.326704544
1.23841123
1.288920875
1.289688215
1.289723125
1.289951212
1.289783273
1.289703723
1.290061066
1.290261678
1.289829842
1.289497235
1.289661026
1.289877252
1.289782077
1.289635091
1.289619396
1.289675005
1.289695597
1.289831415
1.328320777
1.237805202
1.288970227
1.289672765
1.289760388
1.289950173
1.289715305
1.289652136
1.290135775
1.290357331
1.289830896
1.289416687
1.289642401
1.289938818
1.289817025
1.289587547
1.2895659
1.289668031
1.289706168
1.28979583
1.330271601
1.237492849
1.288997547
1.289720676
1.289792013
1.289996978
1.289767324
1.289670479
1.290174986
1.290393156
1.289836991
1.289654497
1.289678002
1.289985015
1.28982012
1.289547091
1.289527065
1.289653557
1.289698145
1.28975351
1.331861252
1.237655174
1.289006393
1.289776162
1.289806397
1.290075665
1.289850215
1.28970228
1.290177186
1.290391691
1.289950829
1.296922431
1.289734484
1.289978334
1.289795113
1.289520311
1.289511733
1.28963509
1.289681497
1.289714263
1.333154137
1.238248711
1.289011285
1.289791798
1.289810234
1.290137036
1.28990427
1.289730019
1.290157579
1.290358036
1.289771856
1.293950997
1.289724313
1.289925215
1.289745141
1.289513029
1.289516135
1.289621161
1.289663486
1.289683309
1.333604253
1.239829336
1.289047119
1.289801679
1.289826768
1.290134722
1.289906061
1.28978076
1.290171604
1.290318658
1.289737232
1.289568589
1.289649938
1.289835658
1.289687231
1.289511701
1.289526237
1.289607839
1.289646535
1.289664753
1.333201911
1.241687278
1.289108044
1.2898411
1.289870753
1.290058676
1.28987033
1.289870915
1.290224352
1.290280593
1.289824655
1.289531578
1.289691194
1.289813642
1.289656063
1.289515939
1.289530608
1.289592941
1.289629187
1.289650934
1.331917489
1.244942239
1.289219241
1.289901365
1.289929297
1.289973737
1.289834388
1.289978534
1.290258549
1.290175948
1.289743009
1.289563403
1.289737785
1.289815431
1.289645736
1.289516199
1.289525184
1.289574272
1.289609734
1.289644851
1.329465149
1.247925608
1.289324105
1.289945633
1.289970175
1.289926229
1.289826088
1.290068129
1.290246323
1.290055181
1.289658842
1.289586517
1.289769358
1.289830362
1.289649793
1.289520827
1.289517549
1.289556833
1.289589983
1.28963394
1.326548409
1.252737255
1.289437031
1.289945052
1.289973037
1.289925108
1.289854049
1.290094413
1.290178705
1.289927174
1.289604118
1.289625995
1.289802877
1.289832503
1.289653969
1.289531968
1.28952041
1.289547425
1.289574788
1.289631849
1.322332556
1.256478434
1.289497473
1.289906716
1.289937923
1.289950413
1.289898729
1.290048799
1.290037537
1.289812854
1.289623348
1.289719112
1.289831859
1.28980197
1.289649734
1.289557822
1.289541925
1.289554768
1.289570929
1.289628302
1.31850825
1.262295419
1.289569231
1.289872462
1.289894292
1.289962244
1.289941799
1.289951002
1.289855737
1.289742629
1.289718269
1.289798404
1.289815188
1.289738483
1.289645468
1.289602587
1.289583334
1.2895757
1.289579518
1.289639189
1.313290356
1.266180136
1.289613658
1.289874405
1.28986299
1.289935903
1.289949347
1.28988196
1.289733489
1.289717523
1.289807177
1.289865532
1.289786011
1.289681413
1.289645699
1.289652528
1.289630864
1.289603538
1.289597717
1.289647825
1.309554249
1.272492299
1.289693964
1.289905193
1.289856274
1.289867251
1.289916296
1.289853522
1.289705621
1.289726433
1.289848622
1.2898828
1.289760676
1.28965307
1.289654902
1.289689988
1.289670731
1.2896303
1.28961966
1.289664933
1.304025185
1.276190651
1.289746374
1.289923816
1.289867462
1.28978766
1.289839125
1.289867884
1.289771401
1.28974569
1.289832288
1.289856678
1.289751734
1.289663974
1.289674148
1.28971039
1.289697722
1.289654751
1.289645176
1.289680556
1.300776908
1.282799655
1.289469526
1.289825466
1.289185894
1.289456556
1.288972902
1.289518794
1.289298425
1.289544998
1.289583987
1.289776655
1.289748313
1.289773082
1.289801093
1.289828766
1.28982357
1.289745369
1.28972975
1.289713469
1.295256781
1.299598964
1.256061454
1.281930802
1.241134838
1.264780119
1.237264683
1.257181859
1.246620415
1.264986752
1.264260011
1.281521345
1.284035619
1.300006091
1.300843861
1.314606522
1.308841034
1.317942239
1.302908798
1.308074573
1.29060749
1.225608789
1.288389298
1.28997551
1.290271555
1.289093749
1.288996155
1.290350478
1.290482384
1.28948671
1.289151326
1.289727221
1.290004901
1.289717803
1.289412491
1.289464986
1.289617199
1.289626825
1.289590902
1.289740382
1.34306171
1.224781346
1.288379451
1.289975513
1.289950278
1.289699968
1.289598877
1.290169745
1.290193913
1.289677534
1.28939041
1.289687611
1.289874989
1.289693776
1.289491586
1.28949178
1.289578736
1.289616823
1.28961727
1.289782262
1.344195431
1.223693908
1.288393473
1.289849529
1.289671321
1.290101313
1.290026732
1.289844957
1.289852774
1.289874813
1.289657646
1.2895885