/*--------------------------------*- C++ -*----------------------------------*\
| =========                 |                                                 |
| \\      /  F ield         | OpenFOAM: The Open Source CFD Toolbox           |
|  \\    /   O peration     | Version:  5.x                                   |
|   \\  /    A nd           | Web:      www.OpenFOAM.org                      |
|    \\/     M anipulation  |                                                 |
\*---------------------------------------------------------------------------*/
FoamFile
{
    version     2.0;
    format      ascii;
    class       volVectorField;
    location    "4.8";
    object      U;
}
// * * * * * * * * * * * * * * * * * * * * * * * * * * * * * * * * * * * * * //

dimensions      [0 1 -1 0 0 0 0];

internalField   nonuniform List<vector> 
30538
(
(-0.05208965797 -0.0003053419702 -0.001826127411)
(-0.04279382982 -0.003919732135 0.00260818738)
(-0.04900477554 -0.003983518917 -0.0003779772376)
(-0.0255857575 -0.006610492523 0.002064640921)
(-0.02592370691 -0.00556547084 0.001361380838)
(0.002799895188 -0.006442231664 0.002974594358)
(0.002529190805 -0.003290305641 0.003337830403)
(0.03020802148 -0.002901777443 0.004598653853)
(0.02585156595 0.00113380881 0.007330206454)
(0.04742611205 0.000903591821 0.007693667546)
(0.03858968423 0.002918060792 0.006151372941)
(0.04556329429 0.0002699734248 0.004774838253)
(0.01982613345 0.001555326177 0.004386788498)
(0.01054023426 0.0007854980094 0.007169300272)
(-0.01197684105 0.003491446341 0.007194088895)
(-0.01027686112 0.003656910271 0.009710192703)
(-0.0137898247 0.005928685467 0.006964341913)
(-0.001985186266 0.005236746826 0.008313407378)
(0.002239965361 0.004905043486 0.002703804245)
(0.007489208727 0.001437279737 0.002774866)
(-0.05501889675 -0.001829897846 -0.001872405509)
(-0.04538193561 -0.01041871174 0.002394235003)
(-0.05094263715 -0.01236824834 -0.0001976922592)
(-0.02667129826 -0.01760379794 0.002694239768)
(-0.02582139126 -0.01696809038 0.001924108175)
(0.004405652798 -0.0168261265 0.003443447138)
(0.005017588517 -0.01194777132 0.003606823439)
(0.0333611518 -0.007769305514 0.00447457174)
(0.02853329331 -0.001428298239 0.006520177854)
(0.04872396572 0.002596137651 0.006972509651)
(0.03810807791 0.003784489149 0.006030391647)
(0.04459715664 0.002442524424 0.005589203299)
(0.0201663839 0.002047701978 0.005108767851)
(0.01190534148 0.004390355923 0.007506972683)
(-0.009906757804 0.008099263996 0.006883582685)
(-0.008616683427 0.01118661698 0.009346643141)
(-0.01258528693 0.01407673888 0.006441435147)
(-0.002728986002 0.01417834536 0.007978644726)
(-0.0004516423472 0.0113835376 0.002365863752)
(0.00291864182 0.004234894372 0.002738671711)
(-0.06053348094 -0.001875361586 -0.001884221218)
(-0.05025993742 -0.01582993857 0.002204996079)
(-0.05407190385 -0.01604946506 0.0002720998682)
(-0.02881135293 -0.024862688 0.003720663612)
(-0.02539118699 -0.02110633313 0.002796836844)
(0.006345414304 -0.02322445238 0.00423659558)
(0.008909507948 -0.01491999259 0.004257309537)
(0.03765418384 -0.0132411309 0.004337894373)
(0.03313554168 -0.002468098907 0.005496463394)
(0.0511790579 -1.575818561e-05 0.005915282795)
(0.03843982195 0.006581710303 0.006132362619)
(0.04436214896 0.003605208938 0.006834600633)
(0.02115528901 0.007509083515 0.006276744029)
(0.01479472919 0.007927208337 0.007862545274)
(-0.007143151017 0.01495784337 0.00665074378)
(-0.00612176359 0.01571692575 0.008819506201)
(-0.01156667296 0.01998047993 0.005967897567)
(-0.00393249516 0.0172010047 0.007339194795)
(-0.004721457334 0.01444514519 0.001971536485)
(-0.003867112154 0.004128303142 0.002547249092)
(-0.06725027746 -0.002402390046 -0.001811741554)
(-0.05554510853 -0.01861552588 0.002194408958)
(-0.05717181657 -0.01800702218 0.0007157356628)
(-0.03024459533 -0.02689723311 0.004602312886)
(-0.02461140497 -0.02227601874 0.003212195198)
(0.008761347377 -0.02464638189 0.004787148348)
(0.01203685767 -0.01825816501 0.004600906492)
(0.04217801044 -0.0177387236 0.004139870538)
(0.0378117384 -0.008857868297 0.004117029283)
(0.05520148295 -0.004498119694 0.00500448988)
(0.04062808771 0.003351499747 0.005726341804)
(0.04524894347 0.005059370967 0.007733501216)
(0.02318943972 0.009928782583 0.006535673298)
(0.01714898252 0.01208459116 0.007956049753)
(-0.004440581342 0.01783356616 0.005928774473)
(-0.00506333116 0.01822571847 0.008315160271)
(-0.01155343082 0.0202361878 0.005085424718)
(-0.006639912361 0.01613484762 0.006761470558)
(-0.009549592384 0.01231538661 0.001266385475)
(-0.01066464382 0.002921017166 0.002483218971)
(-0.07508873702 -0.001253683007 -0.001557440427)
(-0.06146106915 -0.0199592191 0.0024840885)
(-0.05975130722 -0.01538040151 0.001224503945)
(-0.0318539744 -0.02541483563 0.005054655722)
(-0.02372340085 -0.01722135005 0.003475769301)
(0.009168804593 -0.02333670428 0.005062298056)
(0.01377235953 -0.01632807491 0.005191756093)
(0.04433388022 -0.02130942171 0.004368787371)
(0.04243269842 -0.01124848506 0.003965868544)
(0.05987114297 -0.01019650347 0.004975558323)
(0.04513352363 0.002287786363 0.00599129063)
(0.04899993174 0.003958562685 0.00837087272)
(0.02607939558 0.01374616471 0.006755571042)
(0.0203590618 0.01311688165 0.007710812956)
(-0.002866931329 0.01998458322 0.005842921283)
(-0.004381558821 0.01694293703 0.007933569462)
(-0.01309840104 0.01900071983 0.004842948403)
(-0.009544700623 0.01158056717 0.006170474604)
(-0.01387202648 0.009020683073 0.00104064627)
(-0.0151395983 -1.482058874e-05 0.002228607347)
(-0.08198634595 -0.0002169801466 -0.00122223351)
(-0.06565022487 -0.01872332127 0.002968284213)
(-0.0609048945 -0.0117447269 0.001411624499)
(-0.03158686179 -0.02115082707 0.004879999915)
(-0.02310342287 -0.01199765773 0.00293478714)
(0.009386504161 -0.01985535223 0.004798284097)
(0.0134672537 -0.01434002605 0.00485662063)
(0.0458248884 -0.02142951893 0.004607318808)
(0.04561707699 -0.01329338292 0.003623578075)
(0.06483703536 -0.01359769227 0.005378643649)
(0.05057989018 -0.001593800035 0.00526165745)
(0.05331712225 0.001478551706 0.008001038397)
(0.02963131395 0.01165674571 0.005214509083)
(0.02153482392 0.01050019564 0.007056682201)
(-0.001774514361 0.01601650172 0.005014915867)
(-0.005740643418 0.01266187098 0.007806691997)
(-0.01534536478 0.01444766269 0.004146112441)
(-0.0137319622 0.007112277194 0.005937057516)
(-0.01753163884 0.005404783778 0.0005950070726)
(-0.01758206439 -0.001659787769 0.002397343347)
(-0.08823199225 0.002695463003 -0.000762886333)
(-0.06971598865 -0.01598051767 0.003589205884)
(-0.06135236881 -0.004725924845 0.00175296814)
(-0.03209865949 -0.01572929112 0.00447707494)
(-0.02279893423 -0.003536766728 0.002706630435)
(0.007532960874 -0.01515023959 0.004446263812)
(0.01267705126 -0.007199347396 0.005110575081)
(0.04512839177 -0.01781863528 0.005195485894)
(0.04795500901 -0.008721723387 0.005197072056)
(0.0682020539 -0.0141725472 0.006597828638)
(0.05575664055 -0.002467734124 0.005897333632)
(0.05833369234 -0.003475450667 0.007508267696)
(0.03242393327 0.007170813051 0.004759822276)
(0.02340269589 0.003031767027 0.006661226466)
(-0.001357657639 0.009344452321 0.005499443615)
(-0.005502229999 0.004899270089 0.007862179209)
(-0.01696799908 0.00932422303 0.004319467571)
(-0.01597029067 0.002978542292 0.005569442549)
(-0.01989794529 0.004367215301 0.0008770198672)
(-0.01830148147 -0.002283339491 0.002323223086)
(-0.09114185745 0.005590579115 -0.0004342111712)
(-0.07101976979 -0.01125649228 0.004010284036)
(-0.06056605551 0.002838031851 0.001821443091)
(-0.03080353633 -0.00884350854 0.003996163957)
(-0.02266806902 0.004725516601 0.001775279525)
(0.00680315428 -0.008007450523 0.003885633553)
(0.01159412876 0.001765094285 0.004149486508)
(0.04479285671 -0.009577125761 0.005482193218)
(0.04817917888 -0.0008004051688 0.005211849653)
(0.0693214872 -0.01070978614 0.007352146792)
(0.05813273728 -0.002478952101 0.004687299416)
(0.06007567094 -0.008761433379 0.006429862153)
(0.03422614321 -0.0005422423267 0.003011133785)
(0.02302294394 -0.006379840744 0.006392778899)
(-0.0004839701572 3.783252205e-05 0.005085150621)
(-0.005751049385 -0.003959070363 0.008049378824)
(-0.01669054432 0.002580305771 0.003606674722)
(-0.01724761641 -0.0009577804903 0.005487231645)
(-0.02108889739 0.003479876586 0.0006116398298)
(-0.01951205255 -0.002053154309 0.002721446919)
(-0.09197471393 0.009676644599 -0.0002191703297)
(-0.07178804531 -0.006048096227 0.004236823084)
(-0.05948658375 0.01283143205 0.00205921478)
(-0.03083204132 -0.00091017673 0.003668829636)
(-0.022174947 0.01586322952 0.001627106232)
(0.005434506763 0.001786035282 0.003444101126)
(0.01157167894 0.01499652899 0.004389149409)
(0.04336673219 0.001434754199 0.005675211278)
(0.0471447393 0.01042320093 0.006757791479)
(0.06706268641 -0.004874866873 0.008039082318)
(0.05713565556 -0.0001501515509 0.006243753602)
(0.05963643938 -0.01310562745 0.006237335084)
(0.0341113367 -0.007294350507 0.003860814282)
(0.02378673899 -0.0155454447 0.006678834991)
(0.0003280670839 -0.008277142603 0.006189566341)
(-0.003666051098 -0.01271064423 0.008101536388)
(-0.01485356293 -0.004494931457 0.003907169121)
(-0.01534475966 -0.00667146748 0.005148957039)
(-0.02051643034 0.001073828199 0.001091128194)
(-0.01972320091 -0.00265639788 0.002659744655)
(-0.08829397545 0.0129424872 -0.0003466337209)
(-0.06887798934 -3.148584517e-05 0.003955139489)
(-0.05679586225 0.02198896181 0.001750277392)
(-0.0287418457 0.00775695414 0.003312375893)
(-0.02074209023 0.02657917149 0.0008418042083)
(0.006184697113 0.01252778336 0.002949262465)
(0.01132690914 0.02717710121 0.003276547471)
(0.04163142293 0.01154338516 0.005378678308)
(0.04372529858 0.01938692538 0.005473896811)
(0.06189795074 0.0002344288436 0.007700614558)
(0.05231458033 0.002372814102 0.004815839749)
(0.05497822394 -0.01596612749 0.005963853194)
(0.03249882432 -0.01234276401 0.003131997516)
(0.02233217585 -0.02271886797 0.006986040369)
(0.001527831429 -0.01499061698 0.005714458952)
(-0.003055949664 -0.02012738224 0.008114614477)
(-0.01238258996 -0.01140762642 0.003339443562)
(-0.01334725674 -0.01366191902 0.005330159135)
(-0.01811940645 -0.003770763222 0.001051544152)
(-0.01877259137 -0.004777310635 0.00295229608)
(-0.08251561893 0.01647306464 -0.00060380967)
(-0.06547169257 0.005165958682 0.003238047362)
(-0.05386517868 0.03145957741 0.001402073626)
(-0.02766310865 0.01600977515 0.00282713388)
(-0.01880276995 0.0378279259 0.0007367946488)
(0.005867477248 0.02236262772 0.002434001251)
(0.01083250993 0.03859709912 0.003472634468)
(0.03795253159 0.01943247189 0.00479495724)
(0.03913693542 0.0260239269 0.005836439744)
(0.05508330643 0.003781718076 0.006993331908)
(0.04569474696 0.004952566423 0.00617932367)
(0.04923226541 -0.01629214502 0.00634959659)
(0.02933886408 -0.01454637744 0.005008595481)
(0.02191819471 -0.02701635033 0.007331245384)
(0.002184804401 -0.01963404178 0.006460517482)
(-0.001156293288 -0.02524925863 0.00777081859)
(-0.010234439 -0.01654685947 0.004002714108)
(-0.009975603103 -0.01976931159 0.00536478538)
(-0.01411576585 -0.009138670242 0.001834497089)
(-0.01403763282 -0.007605742061 0.002728541132)
(-0.07264498368 0.01853329938 -0.001005335589)
(-0.05837280529 0.009040921454 0.002146123759)
(-0.04900268673 0.03807110077 0.0004987663757)
(-0.02432534878 0.02270179939 0.002191928125)
(-0.0162575703 0.04586523896 9.227369003e-05)
(0.006724158685 0.0291252088 0.002032458696)
(0.009198576877 0.04556178567 0.002379578304)
(0.0328469672 0.02332643281 0.004112027068)
(0.03263076957 0.02889758792 0.003964774196)
(0.04705436426 0.004835120137 0.005828923243)
(0.03814767512 0.006878472956 0.004523298163)
(0.04119097867 -0.01560935709 0.006359450785)
(0.02494092695 -0.01428447472 0.004655383402)
(0.01872738314 -0.0293635581 0.007467806556)
(0.002801526585 -0.02223477446 0.005443210715)
(-0.0008959920717 -0.02843080446 0.007350812506)
(-0.008496336124 -0.01836776821 0.003587791217)
(-0.008122633399 -0.02246628598 0.005794860282)
(-0.009421796293 -0.01179655132 0.00185124839)
(-0.007227157061 -0.009342846715 0.003008778122)
(-0.06268109043 0.02027939437 -0.001293767986)
(-0.05176904351 0.01031857702 0.0009827297876)
(-0.04406509331 0.04311269286 -0.0004011770966)
(-0.02226586105 0.02684685153 0.00137997463)
(-0.01427195945 0.05173784494 0.0001655627518)
(0.005662758361 0.03237415496 0.001717473109)
(0.006692328403 0.04935110364 0.002602127937)
(0.02627635227 0.02501396444 0.003527057278)
(0.02604128304 0.03074001597 0.004178147405)
(0.03956786849 0.005773943628 0.004828657751)
(0.03127030552 0.008781028184 0.00527279468)
(0.03425702705 -0.01336749178 0.006389106512)
(0.01965759531 -0.01240774989 0.006214905586)
(0.01627618801 -0.02900934676 0.00746779348)
(0.002861931668 -0.02291968377 0.005931545631)
(0.001611059332 -0.02917374912 0.006630971755)
(-0.00606179349 -0.01767632286 0.004036559825)
(-0.00532816801 -0.02064594836 0.005437938081)
(-0.004759198751 -0.00961477063 0.002451812714)
(0.0006657623273 -0.008431352317 0.002563071119)
(-0.05069651865 0.02059024921 -0.001489496829)
(-0.04233671125 0.009592417912 -4.402211879e-05)
(-0.03720494866 0.0443208805 -0.001508836804)
(-0.01834555102 0.02754018186 0.0005652931071)
(-0.01235396705 0.05275029995 -3.015550117e-05)
(0.005047540136 0.03132586698 0.001736714847)
(0.003971660799 0.04899822403 0.001909311001)
(0.01979928435 0.02471319654 0.003188015063)
(0.01901038849 0.03207087584 0.002990091073)
(0.03158921095 0.006439133446 0.004123229164)
(0.02465141517 0.01078325815 0.003737403539)
(0.02620682794 -0.01117891285 0.006086473028)
(0.01391122874 -0.008600761617 0.005517421012)
(0.01129354422 -0.02616948051 0.00742834102)
(0.002684209551 -0.02003429586 0.004904954317)
(0.002868133257 -0.02755706243 0.006086476621)
(-0.002500773403 -0.01502657276 0.003267322827)
(-0.002412923791 -0.01679885502 0.005099439792)
(-0.0007032963117 -0.003507274697 0.001573153271)
(0.005295060854 -0.00578539754 0.002420241937)
(-0.04104496915 0.02079190287 -0.001522796869)
(-0.03507747094 0.007263912656 -0.0006799613431)
(-0.0312944833 0.04388746516 -0.002160053301)
(-0.0164226327 0.02548360298 -1.739662214e-05)
(-0.0115822733 0.05193793605 0.0004258148857)
(0.003009191052 0.02862912837 0.001956738361)
(0.001990041662 0.04807730169 0.002267638745)
(0.01442706784 0.02494361194 0.002852351847)
(0.0131128419 0.0350483998 0.003443197194)
(0.02458014007 0.009222747655 0.003659085667)
(0.01885840184 0.01362881945 0.004180127523)
(0.02055548827 -0.007453735258 0.005544385337)
(0.009083090298 -0.002886318521 0.006198491209)
(0.008200484372 -0.01893467371 0.006995806259)
(0.001880672339 -0.01326941794 0.005368143257)
(0.005171020324 -0.02285632565 0.005374428147)
(0.001561164456 -0.01198424839 0.003668227367)
(0.002839337581 -0.01330349792 0.004040382819)
(0.00312253174 0.001597195252 0.001103832973)
(0.006978704311 -0.002916878545 0.001353247858)
(-0.0305527332 0.02022320692 -0.001391281645)
(-0.02609789207 0.004541763902 -0.001001084548)
(-0.02424772506 0.04140199655 -0.002381922185)
(-0.0127844358 0.02171790431 -0.0003063612241)
(-0.01011172771 0.04891404278 0.0006262862708)
(0.002320476322 0.02476247749 0.002266347969)
(0.001349353952 0.04596157185 0.00185729186)
(0.01069883805 0.02417417445 0.002475165097)
(0.007883200651 0.0373460884 0.002565627701)
(0.01650945979 0.01180545573 0.003332235338)
(0.01289995998 0.01695978525 0.003047271612)
(0.01452381397 -0.003578075653 0.004781173959)
(0.005807620523 0.004560940339 0.004644068945)
(0.003958359827 -0.009412779328 0.006094114062)
(-7.973177222e-05 -0.0026072184 0.004305916517)
(0.003766149639 -0.01552830506 0.00528512308)
(0.004273923726 -0.007847983392 0.003348042261)
(0.00720789408 -0.01135236127 0.003847330086)
(0.00675458529 0.003731185711 -0.0001114587096)
(0.005944119809 -0.001880869842 0.000839448638)
(-0.02322831977 0.02002542706 -0.001212486761)
(-0.02020554114 0.001894613843 -0.0009510415355)
(-0.01906321844 0.03912735305 -0.002106437238)
(-0.01122556513 0.01804589122 -0.0002870309612)
(-0.009400881003 0.04651326897 0.0009303042385)
(0.0009221458916 0.02282128519 0.002435934091)
(0.001559189704 0.0451051272 0.001980393496)
(0.008432653459 0.02408571889 0.001870881695)
(0.00436045365 0.03900840048 0.0024713518)
(0.01022104975 0.01507921527 0.002819380017)
(0.007991510774 0.02157953155 0.003184165571)
(0.011785764 0.002080728234 0.00367213971)
(0.004969144262 0.01200045941 0.003934500125)
(0.003122583095 9.457803482e-05 0.004352688587)
(-0.00245218228 0.007823904054 0.00416046664)
(0.001474979357 -0.005966260998 0.004964617234)
(0.004481065232 -0.001420814806 0.00461251829)
(0.01103052146 -0.008666073766 0.003783872488)
(0.009946846788 0.003704909581 0.0001106171439)
(0.005351689595 -0.002404384449 -0.0001387982488)
(-0.01475339141 0.01950882913 -0.00088479529)
(-0.01270044986 -0.0005486086618 -0.0007180242832)
(-0.01273946097 0.03658240421 -0.001385765745)
(-0.007631119016 0.01416456943 -0.0001107027857)
(-0.00670809609 0.04435381256 0.0009069680729)
(0.001316143177 0.02099169712 0.002084352056)
(0.002211636035 0.04388428326 0.001421724435)
(0.006451741035 0.02180043157 0.001257898991)
(0.001518066617 0.03797122772 0.00140260012)
(0.004222309201 0.01628350788 0.002197805365)
(0.003705842034 0.02599150982 0.001937567747)
(0.007744403655 0.007440775179 0.002396949318)
(0.004408714841 0.01768084012 0.001676486445)
(0.0009868683526 0.006159680059 0.002497765441)
(-0.004386527112 0.01545665948 0.002452626552)
(-0.002753576147 0.003791783411 0.00460872005)
(0.002314572413 0.009054305286 0.004436558917)
(0.01081938999 -0.002159522929 0.004324953405)
(0.01132677131 0.005057420844 -0.000133227154)
(0.004697133988 -0.003547639449 -8.296137297e-05)
(-0.009601714669 0.01931070323 -0.0005821188274)
(-0.008338590764 -0.001492071224 -0.0003434904485)
(-0.008696323764 0.03492456341 -0.0007996276236)
(-0.005884600255 0.01376366042 5.179011248e-05)
(-0.00461789008 0.04399235466 0.0005875057587)
(0.0005699735463 0.02142008454 0.001242245106)
(0.002156405327 0.04316158708 0.000916274814)
(0.004379400797 0.01953561013 0.000533370298)
(0.0005671689093 0.03621407345 0.0009575471486)
(0.001834573737 0.0170680134 0.001326266348)
(0.001762629772 0.02954855161 0.00153868463)
(0.005882852599 0.01144869563 0.001100470534)
(0.004025599127 0.02070855426 0.0009614795383)
(0.001500426151 0.007483893137 0.0008078357868)
(-0.004154627955 0.01922898783 0.00181952757)
(-0.003058549852 0.01079674604 0.00311592998)
(0.0003144263495 0.01929768237 0.003994924118)
(0.008250818635 0.006699493477 0.003363067166)
(0.009144597904 0.007834374923 0.0005724534417)
(0.004022473005 -0.003892983123 -0.0003639930221)
(-0.001917730399 0.01938716827 -0.0001061741843)
(-0.001553906453 -0.002723356675 -0.0001724116274)
(-0.0017559644 0.03388098431 -8.263781691e-05)
(-0.001071325879 0.01300500628 -1.417587471e-05)
(-0.001220226593 0.04433288195 0.0003047089947)
(0.0007658722039 0.02173059623 0.000625279942)
(0.0007702320339 0.0424731258 0.0003035405939)
(0.001443808374 0.01716491413 0.0001458975486)
(-0.0003787707724 0.03366889152 0.0001042102374)
(-0.0005974830405 0.01626810145 0.0004747301516)
(-0.0002881240389 0.03152650317 0.0002221928157)
(0.001568900942 0.01400833519 0.0003395860703)
(0.001700863453 0.02114921204 -0.0003473368847)
(3.965976702e-05 0.006148090677 7.824923932e-05)
(-0.00197934914 0.01924261336 0.0001029026452)
(-0.002748747871 0.01500103982 0.00134310386)
(-0.0006552432246 0.02739240573 0.001373658475)
(0.002541399075 0.01512266994 0.001708605332)
(0.003753237017 0.01172421729 0.0001165026602)
(0.001605614226 -0.003622868543 8.471644616e-05)
(-0.05074582891 -0.0004054599829 -0.009336049932)
(-0.04109113784 -0.004341223712 0.01009210078)
(-0.04957716303 -0.003654218672 -0.006192525625)
(-0.0232161551 -0.005431198051 0.008800755784)
(-0.02467924767 -0.004500874008 -0.003629563057)
(0.00543893404 -0.005554179454 0.01070372831)
(0.004642076295 -0.002778609128 0.001074805048)
(0.03558587671 -0.003137651735 0.01049538378)
(0.02999885691 -0.0004014308965 0.007998419778)
(0.04597404479 -0.000479434867 0.01598525027)
(0.03465700249 0.002652863376 0.00936341938)
(0.04327593187 0.001803139056 0.00857194399)
(0.02300269642 0.002908205742 0.007927351653)
(0.0143017909 0.001396503077 0.0141592893)
(-0.008557476392 0.002884508717 0.01992059929)
(-0.01064760478 0.00292685658 0.01982416307)
(-0.01563243115 0.004911253963 0.02145773574)
(-0.007918894854 0.004573163923 0.01519409227)
(-0.005070674529 0.004217286761 0.01306448389)
(-0.0002489941754 0.001341250022 0.002228810948)
(-0.05405838434 -0.001954935139 -0.009454183812)
(-0.04340471722 -0.01120845276 0.009786425481)
(-0.05035955273 -0.0111597209 -0.005921987323)
(-0.02380718324 -0.01449511785 0.01010830695)
(-0.02475702623 -0.01427226198 -0.002260602887)
(0.0066580392 -0.01444366059 0.01144455664)
(0.006342948333 -0.01021347845 0.001669952796)
(0.03729244654 -0.008272139126 0.01032262377)
(0.03187179725 -0.004920422386 0.006955636818)
(0.04815586402 -0.0008063596639 0.01401613605)
(0.03623229686 0.00369774276 0.009232017129)
(0.04343950876 0.006329502603 0.009719063843)
(0.02269472234 0.005599701443 0.009935344548)
(0.01428196038 0.005658881309 0.0146099363)
(-0.007471774325 0.007036236374 0.01963406958)
(-0.009234064543 0.009443872473 0.01879697964)
(-0.01446458099 0.01215352933 0.02046389431)
(-0.008408634396 0.0122816908 0.01397331847)
(-0.007317341651 0.009944072114 0.01205759732)
(-0.004281700345 0.003766733741 0.001656436599)
(-0.05988320127 -0.00175576687 -0.009427134208)
(-0.04764700736 -0.01622310355 0.009657581774)
(-0.05186589743 -0.01435008177 -0.005212303215)
(-0.0254276342 -0.02126979248 0.01214075947)
(-0.02461897662 -0.01869845551 -0.001085072365)
(0.008310932185 -0.02068240158 0.01221418935)
(0.009001802057 -0.01304620059 0.002013067477)
(0.03934137544 -0.01388631407 0.01032805056)
(0.0352408284 -0.007054969945 0.004079297123)
(0.05210183168 -0.003775822654 0.01120156339)
(0.03963756635 0.005974792519 0.007181666217)
(0.04462600943 0.007652979662 0.0118084691)
(0.02249578584 0.01021205291 0.01115527659)
(0.01529930753 0.008753200407 0.01509357269)
(-0.005899558018 0.01312760075 0.01794819368)
(-0.007047302672 0.01373402758 0.01731392612)
(-0.01360651756 0.01738214385 0.01858857852)
(-0.009504303888 0.01486817699 0.0122567805)
(-0.01100161163 0.01235912256 0.01031821398)
(-0.0102375399 0.003625263226 0.0008508465389)
(-0.06654915607 -0.001771978116 -0.009110886928)
(-0.05241269795 -0.01809709434 0.009962805228)
(-0.05380199151 -0.01623355032 -0.004184399965)
(-0.02690614579 -0.02438383752 0.01408355856)
(-0.02427684472 -0.02101986681 -0.0004375419734)
(0.01063384047 -0.02307550019 0.01233238688)
(0.011139046 -0.01649375552 0.003266243478)
(0.04155144695 -0.0176735075 0.0103886322)
(0.03895901929 -0.01177231006 0.003125357296)
(0.05742082026 -0.006297951678 0.008334350643)
(0.04425179982 0.003059088311 0.007773087256)
(0.04642724477 0.007972010476 0.01307194876)
(0.02344808775 0.01084945096 0.01382457682)
(0.016337287 0.01179608773 0.01440479486)
(-0.003969477321 0.01628030969 0.01721914769)
(-0.006227609724 0.01655235846 0.01551713084)
(-0.01366388974 0.0180788862 0.01743823045)
(-0.01198684457 0.01390428221 0.01038980748)
(-0.01513669349 0.01058112252 0.008990166346)
(-0.01598121221 0.002319203812 -6.210787976e-05)
(-0.0736925105 -0.0001382969555 -0.008576858316)
(-0.05796681376 -0.01850057017 0.01070348665)
(-0.0561810934 -0.01410178451 -0.003525733548)
(-0.02884371987 -0.02490192445 0.01495165568)
(-0.02361703347 -0.01778472872 -0.001420933653)
(0.01148816345 -0.02332106601 0.01189361986)
(0.01282641879 -0.01585293031 0.002667866169)
(0.04270548474 -0.02042378777 0.011089174)
(0.04322739543 -0.0121963778 0.0007784236174)
(0.06264409775 -0.009504058815 0.007800039672)
(0.04967266998 0.001391485058 0.005447864369)
(0.05012543431 0.0044388481 0.01475653271)
(0.02515742192 0.01124244486 0.01219876279)
(0.01913189512 0.01141602231 0.01341931911)
(-0.002548446881 0.01823586918 0.01456016362)
(-0.005775058447 0.01597164513 0.01436397334)
(-0.0154740499 0.01720617068 0.01581821398)
(-0.01483819918 0.009986959821 0.009260852352)
(-0.01902892617 0.007810828935 0.00776456101)
(-0.01981224549 -0.0001765887694 -0.0004229622523)
(-0.07951982541 0.001283651765 -0.007777556205)
(-0.06234940875 -0.01662024097 0.01171685094)
(-0.05821669438 -0.01077947067 -0.002729794418)
(-0.02955600666 -0.02225760434 0.01462104476)
(-0.02309052771 -0.01349591931 -0.002123566142)
(0.01198402054 -0.02104825472 0.01075334269)
(0.01320656018 -0.01449582652 0.003414884984)
(0.04416500234 -0.01987829843 0.01113132089)
(0.04663760965 -0.01095880053 0.003193318254)
(0.06708626349 -0.0105269601 0.008003194337)
(0.05407237817 -0.00178082159 0.008315581429)
(0.05336961773 -0.0001920619307 0.01384359165)
(0.02832896758 0.007854953233 0.01273713595)
(0.02126033283 0.008488759421 0.01100365866)
(-0.0007553541953 0.01534061273 0.01438050673)
(-0.006962250673 0.01248338213 0.0132603214)
(-0.01788566383 0.01342617468 0.01565721859)
(-0.01866841775 0.005936357825 0.008425467231)
(-0.02214736458 0.005112248013 0.007722490381)
(-0.02185015784 -0.001500237644 -0.0005883087906)
(-0.08434082496 0.004194334628 -0.007046558451)
(-0.06656199784 -0.01396769476 0.01252553973)
(-0.06003577148 -0.003977476317 -0.002586464169)
(-0.03082511198 -0.01737801229 0.01354432424)
(-0.02270702016 -0.005759112062 -0.003760197516)
(0.01078428444 -0.01690105413 0.009761232313)
(0.0136810588 -0.008547992089 0.001765720451)
(0.04523387172 -0.01617095778 0.011890099)
(0.04981750603 -0.005691767019 0.00322906025)
(0.06918737465 -0.01043065583 0.01102181913)
(0.056957153 -0.003540251136 0.006466302833)
(0.05690864997 -0.006484468459 0.01364880154)
(0.03124455028 0.002984100111 0.008597577418)
(0.02439403377 0.001741756126 0.009933311342)
(0.0002580543863 0.00947769245 0.01278680776)
(-0.007138786957 0.005323477459 0.01333029803)
(-0.02008662438 0.008286571994 0.0145255323)
(-0.0207467174 0.002116750762 0.008103608755)
(-0.02412821634 0.004395376833 0.00742581541)
(-0.02281763531 -0.001689786015 -0.000127378693)
(-0.08624469459 0.00662860253 -0.006364289886)
(-0.06818656146 -0.009985676077 0.01285059521)
(-0.06047795433 0.003385967989 -0.001985790333)
(-0.03086930592 -0.01033915286 0.0123028553)
(-0.02270167369 0.002639189685 -0.003862180542)
(0.01001999044 -0.009945626967 0.008612901477)
(0.0137305013 0.0003531803188 0.002261789158)
(0.04621949863 -0.008700436375 0.01167656598)
(0.05067976266 0.002178615016 0.007731954538)
(0.06865440342 -0.007978762229 0.01276449228)
(0.0568741127 -0.00179907004 0.01067057395)
(0.05792689224 -0.01120958254 0.0113947879)
(0.03413379115 -0.002250065295 0.00950568103)
(0.02581830018 -0.006368180278 0.008648343218)
(0.001762031303 0.001358621869 0.01462090199)
(-0.007805733896 -0.003517929089 0.01326713547)
(-0.0201380221 0.00180512789 0.01467835885)
(-0.02143859869 -0.001750275691 0.007355688756)
(-0.02469515018 0.003905198834 0.007634549293)
(-0.02417753172 -0.0014167233 -4.096333747e-06)
(-0.08650138329 0.00985077146 -0.006189666612)
(-0.0689010207 -0.006124953661 0.0124764346)
(-0.06016391662 0.0126569383 -0.00230405529)
(-0.03141447119 -0.00217906885 0.01119922935)
(-0.02238421312 0.01405107051 -0.005174192291)
(0.009172704639 -3.246325114e-05 0.007818561176)
(0.01455502305 0.01328711485 0.0004097921292)
(0.04657064391 0.001202802872 0.01160413735)
(0.05030999334 0.01092293024 0.007046508783)
(0.06641413521 -0.004235169414 0.01477319633)
(0.05469288685 0.0001153947455 0.01019151053)
(0.05654451923 -0.01402985536 0.01183171615)
(0.03467712291 -0.007076717309 0.007692262907)
(0.02692183997 -0.01444215878 0.009624956427)
(0.002268159395 -0.007078366265 0.01437657626)
(-0.006802648818 -0.01260559868 0.01383815448)
(-0.01882496492 -0.004989585343 0.01350624681)
(-0.0192636297 -0.006987927834 0.007000510228)
(-0.02375775397 0.001948109262 0.007247567183)
(-0.02495693938 -0.002214835688 0.0004468791212)
(-0.08337775682 0.01222270478 -0.006074017434)
(-0.06622038051 -0.001908329095 0.01133515306)
(-0.05758626705 0.02071505796 -0.002110188242)
(-0.02996399224 0.006181263801 0.01003240434)
(-0.02114964633 0.02485883344 -0.004982747154)
(0.00947090765 0.0105716905 0.006469628822)
(0.01457956971 0.02540008417 0.001229675198)
(0.04460452656 0.009852611264 0.01028516536)
(0.04683124616 0.01763155144 0.008707087345)
(0.06104876549 -0.001773098997 0.01370959001)
(0.04997013861 0.002250308091 0.01319464711)
(0.05279819152 -0.0157862563 0.01148042096)
(0.03386055679 -0.01019577105 0.01086574913)
(0.0258019075 -0.02153148621 0.010308285)
(0.003067683384 -0.01448808976 0.01624478975)
(-0.006301961578 -0.02079971911 0.01356559683)
(-0.0161576974 -0.01123689555 0.01379547869)
(-0.01652871575 -0.01328139547 0.006780181164)
(-0.02119740199 -0.002343819701 0.007775528726)
(-0.02433787872 -0.004653584593 0.0004787912364)
(-0.07893023023 0.01523197188 -0.00646198802)
(-0.06291649859 0.001737388703 0.009545482729)
(-0.05435009819 0.02906620423 -0.003325925923)
(-0.02856745834 0.01391340067 0.008518790635)
(-0.01927255332 0.03639162609 -0.006566060776)
(0.009549441306 0.02059044544 0.005178071472)
(0.01400436309 0.03687380848 -0.0005143642884)
(0.04115364539 0.01701836083 0.009231828113)
(0.04207811482 0.02315272966 0.005598279605)
(0.05557653133 0.0002142950908 0.01240709857)
(0.04482245317 0.004387149478 0.01096091374)
(0.04770801905 -0.01556896681 0.01268036096)
(0.03063585099 -0.01168678957 0.01121709067)
(0.02387533847 -0.02615846529 0.01211672177)
(0.002792427109 -0.02018014301 0.01547374089)
(-0.004489900906 -0.02675350227 0.01347735926)
(-0.01350846701 -0.01610463857 0.01316356399)
(-0.01297112267 -0.01889766372 0.007531540187)
(-0.01756234835 -0.007648069198 0.008149715604)
(-0.02032503495 -0.007508883576 0.001150622822)
(-0.07108327574 0.01724231925 -0.006394578679)
(-0.05646606209 0.004767934363 0.00720227864)
(-0.04888854085 0.03462878964 -0.003992900643)
(-0.02487836252 0.01998805 0.006563594633)
(-0.01644024317 0.04478845942 -0.005921748395)
(0.009809839201 0.02775784217 0.003900454283)