/*--------------------------------*- C++ -*----------------------------------*\
| =========                 |                                                 |
| \\      /  F ield         | OpenFOAM: The Open Source CFD Toolbox           |
|  \\    /   O peration     | Version:  5.x                                   |
|   \\  /    A nd           | Web:      www.OpenFOAM.org                      |
|    \\/     M anipulation  |                                                 |
\*---------------------------------------------------------------------------*/
FoamFile
{
    version     2.0;
    format      ascii;
    class       surfaceScalarField;
    location    "2.4";
    object      phi;
}
// * * * * * * * * * * * * * * * * * * * * * * * * * * * * * * * * * * * * * //

dimensions      [1 0 -1 0 0 0 0];

internalField   nonuniform List<scalar> 
91025
(
2.1909039
0.06303516016
-0.07504541467
2.08027088
0.1576456943
-0.06432058639
1.889870548
0.248763838
-0.1888035386
1.424927973
0.2833358946
-0.1524364731
0.7468803143
0.3068467831
-0.2335284628
-0.1907592927
0.2716220606
-0.1920948119
-1.1909629
0.236719385
-0.2352520592
-2.124145185
0.1619494755
-0.2134067276
-2.768560987
0.1007919899
-0.2343242429
-2.995281115
0.0216765963
-0.2236402578
-2.747442651
-0.03575319063
-0.2291082563
-2.111165358
-0.101728919
-0.2220001473
-1.247473805
-0.1485636769
-0.219205709
-0.2945085333
-0.2044112064
-0.2096382559
0.5478766242
-0.2430456905
-0.1948075205
1.119903315
-0.2788932383
-0.1732832336
1.357489456
-0.2784598454
-0.1541139285
1.35929038
-0.2472379523
-0.1218472544
1.288440004
-0.1662041469
-0.08125813808
-0.06862439599
-0.02564298575
2.242386667
0.1205251098
-0.07541440368
2.119913645
0.2963647607
-0.06410345882
1.912733314
0.4694210522
-0.1890597145
1.429758095
0.5308881954
-0.1520842338
0.7362008284
0.576122432
-0.233540624
-0.2136651678
0.5055676833
-0.1915082474
-1.222545434
0.4417306563
-0.2346432777
-2.158299828
0.3021866573
-0.2125943267
-2.802927267
0.1916562389
-0.2321223986
-3.027120247
0.0457759801
-0.221552735
-2.777699577
-0.05832643405
-0.2256585541
-2.138151601
-0.1821221365
-0.2203059442
-1.272526022
-0.2701595724
-0.2177669256
-0.3161849299
-0.3772197012
-0.2102122146
0.5332319846
-0.4509496221
-0.1959701482
1.118935246
-0.5204598198
-0.1753745989
1.375132671
-0.5206783877
-0.155927608
1.396734769
-0.4633144167
-0.1234431587
1.340605713
-0.3113349455
-0.08217398072
-0.1290614142
-0.02600006955
2.341076161
0.1664751226
-0.07539795934
2.196669324
0.3983228867
-0.06428822831
1.956663026
0.6350332657
-0.1888504888
1.439159861
0.7098815002
-0.1521568121
0.7154665487
0.7728937281
-0.2335695326
-0.2581585629
0.6683689515
-0.1910941359
-1.283461781
0.5884084801
-0.2349644472
-2.225999015
0.4018482199
-0.2115538189
-2.870533257
0.2662857109
-0.231945957
-3.091352131
0.07484740463
-0.2181260402
-2.836023325
-0.05334415776
-0.2253203998
-2.191224412
-0.2205986154
-0.2174314133
-1.319844001
-0.3368451203
-0.2185823111
-0.3564388142
-0.4881741371
-0.2110317868
0.5070768497
-0.5893706533
-0.19920697
1.11906073
-0.6908772397
-0.1790460278
1.41006137
-0.6933260492
-0.1597056972
1.468726039
-0.6207285965
-0.1263188998
1.439867238
-0.4165437807
-0.08406050931
-0.1742815859
-0.0266260369
2.474715074
0.1966371824
-0.07625210815
2.301324367
0.4472612032
-0.06354590319
2.015193972
0.7243136854
-0.1893556231
1.451101926
0.7926814574
-0.1516491219
0.6874024502
0.869601312
-0.2343560878
-0.315925362
0.7338888207
-0.1904900917
-1.360981755
0.6544507175
-0.2341793925
-2.310116251
0.4452281736
-0.2101873617
-2.955718977
0.313708803
-0.2263040263
-3.171666795
0.1083271933
-0.213006841
-2.91507816
-0.01653227242
-0.2156029857
-2.264111578
-0.2041321599
-0.2123160065
-1.388526535
-0.3326826091
-0.2127510598
-0.4157529811
-0.5149297989
-0.2097123673
0.4670238207
-0.6356326425
-0.1987469972
1.115258926
-0.765292263
-0.1820715335
1.454547865
-0.774331388
-0.1622937829
1.564142566
-0.7004805366
-0.1289432313
1.573005543
-0.46989924
-0.08566317711
-0.1990558435
-0.027311432
2.624677789
0.2075175743
-0.07592357979
2.418811345
0.4354162032
-0.06367829526
2.07708639
0.7266641466
-0.1886544454
1.459557647
0.7671656956
-0.1522486642
0.6512090159
0.8539385359
-0.2353449188
-0.3826696846
0.6927949266
-0.1909641682
-1.444093178
0.6344809435
-0.2361577294
-2.400937968
0.4282981898
-0.2094931993
-3.044575845
0.3374877293
-0.2273029544
-3.257888566
0.1480413106
-0.20795643
-2.997362395
0.06088772587
-0.2166322781
-2.345982579
-0.1225821995
-0.2063779487
-1.465465325
-0.2400750759
-0.2114864017
-0.4848061342
-0.4411989958
-0.2059603664
0.4188909765
-0.5702499259
-0.1984303209
1.108501794
-0.7281369954
-0.1828948067
1.503134517
-0.7490585855
-0.1636673157
1.671855227
-0.6928664096
-0.1300020255
1.723777274
-0.4647173798
-0.08647344555
-0.2014984902
-0.02779864917
2.775076461
0.2000314138
-0.07666187832
2.534011698
0.3629032127
-0.06282759803
2.136515737
0.6443026622
-0.1890842955
1.465428258
0.6355092541
-0.1526840156
0.6143290329
0.7284246959
-0.2371723557
-0.4443588353
0.5498495361
-0.1921011604
-1.516247653
0.5306762099
-0.2362163674
-2.47595652
0.3529332184
-0.2092562054
-3.118669811
0.3305019586
-0.2202460897
-3.329526847
0.1915143054
-0.2025372931
-3.077282051
0.1697251124
-0.2020728049
-2.430098422
0.02099242487
-0.1981638637
-1.552501322
-0.06487065952
-0.1987192615
-0.5663637719
-0.267195863
-0.1972391847
0.3579129637
-0.3958433659
-0.1906830265
1.091167154
-0.5792167014
-0.1789135777
1.545384573
-0.6203982181
-0.1597591696
1.776234221
-0.6005434831
-0.1276007064
1.874749967
-0.4028591381
-0.08487455935
-0.1821736499
-0.02776257332
2.902880471
0.1747032211
-0.07603068095
2.628670411
0.2378479839
-0.06385575318
2.179764755
0.4841076838
-0.1891985354
1.46186558
0.4098909692
-0.1557022194
0.5759679842
0.5042360876
-0.2406689259
-0.4970149952
0.3173788914
-0.1963752742
-1.567999623
0.3544786938
-0.2416837239
-2.526450675
0.2251334633
-0.2116218487
-3.162381918
0.3018453951
-0.2244435587
-3.375623035
0.2376226612
-0.1992654302
-3.130794614
0.3130909833
-0.2053440605
-2.49986948
0.2154838441
-0.1892513247
-1.630863759
0.1844441505
-0.1914052219
-0.6478894283
0.001372480866
-0.1853794419
0.29122852
-0.1168109215
-0.181512168
1.063100275
-0.3273164746
-0.1694809652
1.573773908
-0.3955944376
-0.151233618
1.86486602
-0.4338136846
-0.1206746577
2.005558925
-0.2870401592
-0.08032702468
-0.1441198993
-0.02717281294
2.998438947
0.1344348122
-0.07658338778
2.695015567
0.06698200862
-0.06541861843
2.205465368
0.2568106786
-0.1914383896
1.453816743
0.1018866864
-0.160689361
0.5451805534
0.1959201301
-0.2458608655
-0.5273839657
0.005597982115
-0.2038979469
-1.588829112
0.1106659409
-0.2460178061
-2.533363489
0.04393051149
-0.2164643051
-3.162390632
0.2355914236
-0.2207712427
-3.379599588
0.2711586823
-0.1971208244
-3.156853475
0.4607112172
-0.1894961569
-2.550780116
0.4416994758
-0.1778197142
-1.703917323
0.4804733065
-0.17213469
-0.7327425344
0.3283231082
-0.1687507332
0.2127457028
0.2329997438
-0.1631867178
1.015262488
0.005967356189
-0.1532855296
1.577130877
-0.09421259665
-0.135926395
1.921525767
-0.2040666134
-0.1083954191
2.101460668
-0.1297430327
-0.07252357566
-0.09109393554
-0.02507353539
3.041406685
0.08111202951
-0.0761374531
2.715351079
-0.1377939384
-0.06985294166
2.201861902
-0.01739823023
-0.1948481343
1.432794206
-0.2647537531
-0.1698485077
0.5185827509
-0.172555351
-0.2549170694
-0.5346613836
-0.3582998256
-0.2162581515
-1.571250686
-0.1831210589
-0.2579634667
-2.490507872
-0.1798351808
-0.2254407935
-3.106001013
0.1356280359
-0.2288439192
-3.331169177
0.2795921721
-0.1975064575
-3.133374703
0.5974443262
-0.1879901055
-2.564860518
0.6720088522
-0.1655065146
-1.751524269
0.7988309661
-0.1584663699
-0.8056873761
0.6908446642
-0.1492011792
0.131401973
0.625847537
-0.1421630048
0.9489639668
0.3828174185
-0.1312257051
1.547814729
0.254783679
-0.1147293364
1.935118689
0.06861491283
-0.09134315111
2.145909157
0.05451426125
-0.06089670698
-0.02935847453
-0.02203876707
3.026859997
0.0217694246
-0.0761539887
2.690224493
-0.3539945282
-0.07457031428
2.169655765
-0.3119062847
-0.199819036
1.404472078
-0.6516888453
-0.1804310704
0.5053846651
-0.5652833522
-0.2652085071
-0.5123511566
-0.7505926954
-0.2311362236
-1.510364482
-0.5090386189
-0.2689007292
-2.391421431
-0.4387940252
-0.2369590641
-2.992321118
-0.00575573256
-0.2323765961
-3.227305592
0.2459130438
-0.198998742
-3.06605979
0.693151332
-0.1767810596
-2.544723456
0.8711556547
-0.1535122536
-1.778036888
1.093864443
-0.1385521597
-0.8693096608
1.040909327
-0.1280755506
0.04667120792
1.014570505
-0.1178499534
0.8634020139
0.7655660715
-0.1064318734
1.484159327
0.6105223139
-0.09151527671
1.900713272
0.3512683071
-0.07160713208
2.134084934
0.2441976022
-0.04855037465
0.03423488009
-0.01730186943
2.942750842
-0.03806939416
-0.07523699851
2.608831604
-0.5615147101
-0.0805759776
2.100329148
-0.5965194073
-0.2051739554
1.360361482
-1.027271316
-0.1930808248
0.501122544
-0.9523261339
-0.2777539077
-0.4652775044
-1.145802294
-0.2486626429
-1.408027383
-0.850186697
-0.2851478257
-2.240163627
-0.7261204237
-0.2506533878
-2.816086017
-0.1924337416
-0.2430565447
-3.059999828
0.1559073175
-0.2019167301
-2.937083305
0.7238886673
-0.1737880617
-2.475156593
1.00481021
-0.1420045662
-1.767821353
1.330958782
-0.1223127367
-0.9138532901
1.339897201
-0.1058662643
-0.03722717481
1.361382275
-0.09220880492
0.7623163985
1.119405067
-0.07964839316
1.385672307
0.9428220817
-0.06551681412
1.814610517
0.6161009097
-0.05112464987
2.05733656
0.4208917333
-0.03436438597
0.09443343468
-0.01309844576
2.80235611
-0.09401310358
-0.07369588024
2.483299407
-0.750989801
-0.08654993778
2.001327621
-0.8603505985
-0.2099945595
1.304648989
-1.377543276
-0.2062251412
0.5023438845
-1.321047611
-0.2886543542
-0.3973034459
-1.535641788
-0.2658325009
-1.272789573
-1.202564121
-0.2968408724
-2.045231875
-1.041391631
-0.2637447949
-2.592065068
-0.4275205884
-0.2484076593
-2.841171053
-0.003867664202
-0.2046084617
-2.76080678
0.6680756655
-0.1671452914
-2.364488742
1.044398597
-0.1321508987
-1.727951607
1.473816428
-0.1056106992
-0.9415895855
1.553327451
-0.08578275154
-0.1194333665
1.630630952
-0.0691036672
0.6465978616
1.406236138
-0.05485794976
1.257703888
1.219618417
-0.04280238731
1.685740207
0.8389195264
-0.03135028525
1.92906804
0.5699148658
-0.02275024331
0.1445081192
-0.007984225803
2.599931454
-0.1410471237
-0.07164074988
2.306645147
-0.9170751509
-0.09263692799
1.865164184
-1.095874288
-0.214742725
1.228463756
-1.695600362
-0.2193086149
0.4986676746
-1.665647066
-0.3008255538
-0.3185936374
-1.913771521
-0.2816554106
-1.111357393
-1.560971052
-0.3104660962
-1.814195265
-1.383206733
-0.2741126164
-2.320891035
-0.7130817079
-0.2554783666
-2.56949569
-0.2345425991
-0.2055531789
-2.526296642
0.520169679
-0.1638439786
-2.199201513
0.9778231475
-0.1221077289
-1.644280594
1.504156316
-0.09128982794
-0.9395770766
1.659494492
-0.06706961109
-0.1892791578
1.799448632
-0.04669579222
0.5234613906
1.605012024
-0.03223247251
1.101776329
1.422939454
-0.01982343599
1.513568537
1.007955432
-0.01381154676
1.746407502
0.6835936211
-0.009970006604
0.18336029
-0.004737242397
2.353196232
-0.178889072
-0.06732070647
2.093248422
-1.056682365
-0.09619779924
1.700476043
-1.300066279
-0.2121762519
1.135400865
-1.97762012
-0.226024778
0.4859764024
-1.983179901
-0.3015248821
-0.2366349585
-2.271776161
-0.2888831879
-0.9390697394
-1.917885464
-0.3101417111
-1.564512365
-1.742934111
-0.2768139442
-2.025484487
-1.042283932
-0.2524472056
-2.266665833
-0.5294940809
-0.2029219132
-2.257555114
0.2860975426
-0.1567125892
-1.996967875
0.8079634844
-0.1134040677
-1.527453914
1.418444017
-0.07977236998
-0.9126512918
1.648745875
-0.05334184945
-0.2442844257
1.857987728
-0.03220579716
0.4010940008
1.704882186
-0.01566555742
0.9350372231
1.544399692
-0.005695658768
1.319114164
1.11539568
-0.0004378249661
1.536267658
0.7589310083
-0.002845825235
0.2081541012
-0.0007567998707
2.056449889
-0.2064919081
-0.06272436044
1.83541589
-1.169674785
-0.0960380514
1.49920296
-1.467947763
-0.2063092361
1.014224348
-2.216754314
-0.2248771261
0.4576576237
-2.25874213
-0.2968838524
-0.1607661223
-2.594431059
-0.2855975841
-0.7607333724
-2.252892608
-0.3048397417
-1.299728114
-2.099354566
-0.269277043
-1.702743788
-1.390465106
-0.2448982102
-1.927262364
-0.869211519
-0.1936646147
-1.945401297
-0.01725978548
-0.1480325276
-1.747495326
0.5512934865
-0.1024219278
-1.365172627
1.230164789
-0.0679284596
-0.8490026165
1.529153404
-0.04090725138
-0.2766433427
1.809447173
-0.0180237139
0.2859951383
1.70839909
-0.00296248614
0.7579646946
1.584132267
0.008985670389
1.101422849
1.162984163
0.01011977147
1.293456057
0.7949237439
0.005839867213
0.2204119765
0.0004546525912
1.731396097
-0.227022685
-0.05437396977
1.550072196
-1.254185359
-0.09077768398
1.272583068
-1.596695689
-0.1872350181
0.8720464605
-2.405437469
-0.2109415634
0.4120173944
-2.482683352
-0.2714205498
-0.09690189823
-2.865933398
-0.2660740182
-0.5929266815
-2.549200426
-0.2774384283
-1.039056617
-2.427590714
-0.2481411803
-1.382004265
-1.731438389
-0.2218267359
-1.581673366
-1.222089082
-0.1768611293
-1.617776669
-0.3532874727
-0.1331290688
-1.474795804
0.2427396547
-0.09170766402
-1.174560648
0.9736684492
-0.05973816498
-0.7566978061
1.330933344
-0.03386057105
-0.2829140987
1.680029084
-0.01370621554
0.1895886592
1.634743823
0.002678758821
0.5926827943
1.55741303
0.01179668464
0.8870563795
1.157629478
0.01486014788
1.050914629
0.7976337867
0.006720175305
0.2200531802
0.002828627467
1.3711202
-0.239477659
-0.04623632642
1.231247657
-1.314693732
-0.07910782752
1.016234968
-1.688939108
-0.1627824961
0.7040236847
-2.547091581
-0.1841223254
0.346869862
-2.654627849
-0.2372784929
-0.04884471199
-3.083594958
-0.2308747661
-0.4338936612
-2.793859777
-0.2417435164
-0.7815748105
-2.711463712
-0.2132163844
-1.053934658
-2.038577398
-0.1917005709
-1.221606561
-1.554091189
-0.1503008913
-1.26260294
-0.6831671665
-0.1130954184
-1.167393762
-0.07424384406
-0.07577789377
-0.945593808
0.6968985418
-0.04748722668
-0.6271073761
1.102660053
-0.02524881118
-0.2599652133
1.511174311
-0.00607314687
0.1121129732
1.519914283
0.006982449824
0.4324520058
1.488401402
0.01677893386
0.6679559359
1.118638572
0.01574833086
0.7971247742
0.775028681
0.009996850714
0.2123688958
0.001902336245
0.9984399251
-0.2488918913
-0.03348338332
0.8979381705
-1.35600579
-0.06242854115
0.7422431747
-1.756501673
-0.1230173223
0.5189019173
-2.64775126
-0.1436432497
0.2623977253
-2.780469084
-0.1798440727
-0.01914224469
-3.243928333
-0.1787771081
-0.2950282346
-2.980933425
-0.1824878456
-0.5442008399
-2.93365721
-0.1642297592
-0.744583549
-2.286897487
-0.1450525308
-0.8721353554
-1.826920974
-0.1160411859
-0.9108313933
-0.9620836669
-0.08668831553
-0.8510118346
-0.3466101921
-0.05895519591
-0.6994067074
0.4510523279
-0.03786439813
-0.4748931013
0.892888774
-0.02005469574
-0.2102250639
1.349871044
-0.006626881234
0.06026627933
1.402530278
0.005620792939
0.296514795
1.4137848
0.01096158302
0.4697610093
1.070814803
0.01303808977
0.5646449257
0.7487629768
0.006037420805
0.2017692142
0.002792838049
0.5991552496
-0.2533857894
-0.02211384684
0.5405619967
-1.38406084
-0.03935972086
0.4473533081
-1.799571115
-0.08021634617
0.3156861734
-2.713618098
-0.09160126419
0.1631172184
-2.858511897
-0.117246219
-0.00337769
-3.34398778
-0.1135782072
-0.1661221479
-3.095954008
-0.118477692
-0.3142912893
-3.074095855
-0.1035264923
-0.4361884079
-2.445835877
-0.09335246336
-0.516016989
-2.005155141
-0.07237475178
-0.543532771
-1.146282985
-0.0547212632
-0.5103513608
-0.5288370175
-0.03586138738
-0.4232250322
0.2859675028
-0.02167783604
-0.2912655528
0.7510273484
-0.01084796597
-0.1354088216
1.239486371
-0.0008016717638
0.02601374881
1.320788349
0.005209385382
0.1667453436
1.358149188
0.01056936461
0.2713375218
1.034952541
0.008769212411
0.3270758597
0.7268704577
0.006422815058
0.194819207
0.0007671134073
0.2077620059
-0.006397046057
0.1887512223
-0.01451147007
0.1559451552
-0.0261413608
0.1106171512
-0.03250781518
0.05641266641
-0.03850785116
-0.0009587564273
-0.0401183142
-0.05782962201
-0.03886986411
-0.1077399407
-0.03667868107
-0.1494569403
-0.0312240485
-0.1766522413
-0.02622399126
-0.1859008234
-0.01941251645
-0.1753554617
-0.01400913003
-0.1441140822
-0.00940825544
-0.1010059518
-0.005472120084
-0.04693444987
-0.003400128005
0.005621368208
0.0001336979755
0.0545842243
0.0003127763309
0.0893407843
0.002496765723
0.1101292554
8.62013179e-05
0.001117987254
2.09253435
0.06291039398
-0.1386420195
2.006896457
0.1574254669
-0.09754703988
1.850176861
0.249189493
-0.3369232228
1.409148774
0.282991951
-0.2563265115
0.7401812008
0.3091182244
-0.4165378869
-0.1936341415
0.2730866076
-0.3374300275
-1.205244118
0.2410072196
-0.4146100384
-2.141086935
0.1645304254
-0.3697770649
-2.79273437
0.1084065728
-0.3958205556
-3.017533325
0.02983419539
-0.3678041549
-2.77054875
-0.02571326796
-0.3643568351
-2.122187428
-0.09416824827
-0.3465299862
-1.240085738
-0.1447755596
-0.3396328477
-0.267920128
-0.2057657612
-0.3304263793
0.5896718532
-0.2493305559
-0.3208435418
1.165154657
-0.2874561094
-0.3022147108
1.419676924
-0.2866060539
-0.2886369791
1.437052613
-0.2532493411
-0.2357244377
1.380034358
-0.1704479266
-0.1669422965
-0.06960154036
-0.05093128114
2.143414087
0.1203837198
-0.1394579509
2.045612426
0.2966365021
-0.09671181816
1.872811109
0.4707986686
-0.3371202087
1.414105115
0.5307322377
-0.2551663225
0.72988712
0.5799326875
-0.415669942
-0.2158217815
0.5081666245
-0.3360896324
-1.235542996
0.449684692
-0.4114766621
-2.173319782
0.307549781
-0.367855114
-2.824909624
0.2061691873
-0.3911348975
-3.048102641
0.06183960764
-0.364788823
-2.800350796
-0.03872757947
-0.3594789744
-2.150369155
-0.1664395207
-0.3451897917
-1.267090611
-0.2608418792
-0.3385501758
-0.2915784464
-0.3766227523
-0.3330455893
0.5737229022
-0.4591912057
-0.3244762711
1.164058975
-0.5333566474
-0.3070879544
1.437783841
-0.5332962245
-0.2928261194
1.475177473
-0.4727995322
-0.2389069
1.433100745
-0.3180523766
-0.1689663708
-0.1307581778
-0.051601622
2.241566223
0.1665209421
-0.1395974508
2.121017591
0.3997757231
-0.09638173835
1.916214012
0.6377883298
-0.3362579477
1.423415452
0.709934538
-0.2542089119
0.7094887632
0.777430533
-0.4144761321
-0.2597575429
0.6706964569
-0.3341718505
-1.294541094
0.5990461398
-0.4104865687
-2.237643516
0.4092796864
-0.365668275
-2.88882389
0.2860204867
-0.3912237448
-3.109715527
0.09744284095
-0.3608612463
-2.858274362
-0.02611425503
-0.3620749359
-2.205285006
-0.1968917295
-0.3437768544
-1.317841798
-0.3198730497
-0.3433543689
-0.3353540432
-0.4806937413
-0.3377796804
0.5449937913
-0.5929034306
-0.3334930515
1.163777907
-0.7010112802
-0.3157281316
1.473319702
-0.704073857
-0.3012462567
1.548207858
-0.6291492059
-0.2447706762
1.533810223
-0.4226358731
-0.1729976389
-0.1762018312
-0.05278433625
2.375655089
0.196778745
-0.1415924319
2.224302777
0.4501156342
-0.09455474176
1.974947132
0.7276036305
-0.3371222721
1.436030414
0.7924541046
-0.2525876746
0.682966435
0.8720947822
-0.4138214494
-0.3155718384
0.7338302555
-0.332363706
-1.369774458
0.6630851887
-0.4037399562
-2.318734114
0.4523517327
-0.3620132727
-2.971021406
0.3341886573
-0.3797293857
-3.18924207
0.1337694358
-0.3540626037
-2.937951624
0.01460208718
-0.348511912
-2.281855713
-0.1734178175
-0.3390877949
-1.391206729
-0.3063757946
-0.3372821037
-0.3993291259
-0.4960113448
-0.340217892
0.5017845748
-0.6275449172
-0.3375237831
1.15950193
-0.7649177113
-0.3237064128
1.51869523
-0.7755363486
-0.3084032195
1.644897189
-0.7022272111
-0.2504157395
1.668639791
-0.4711807553
-0.1768229279
-0.2007976609
-0.05393425385
2.527012227
0.2075303648
-0.1414806023
2.341485969
0.4384832338
-0.09479468639
2.036614447
0.7285789235
-0.3363246122
1.444702964
0.7646680014
-0.253260833
0.6476285305
0.8514386999
-0.4146606634
-0.3812775842
0.6870207816
-0.3322436756
-1.451571726
0.6368890309
-0.4050148241
-2.405605234
0.4316645346
-0.3609189351
-3.056392036
0.3533689627
-0.3832335272
-3.273351013
0.1720846783
-0.3497401327
-3.02012301
0.09118735501
-0.3568351198
-2.365316411
-0.08643311542
-0.3353691663
-1.472103682
-0.2039442025
-0.3418248453
-0.4726902115
-0.4076126455
-0.3405659017
0.4499984363
-0.5450779618
-0.3430574221
1.151414093
-0.7103790705
-0.3290287598
1.566799415
-0.7337181428
-0.3141695803
1.752387181
-0.6822518893
-0.2539099889
1.819272175
-0.4570179323
-0.1794710751
-0.202355436
-0.05460670856
2.678323049
0.1992674206
-0.1436013567
2.457100733
0.3635777351
-0.09386959241
2.095118598
0.6415822238
-0.33833747
1.449970106
0.6268582897
-0.2546881412
0.6116589759
0.7165840921
-0.41749461
-0.441057851
0.5339080574
-0.3341961499
-1.521743067
0.5210947705
-0.4021518517
-2.476410166
0.3479880949
-0.3607069303
-3.126322078
0.3369208561
-0.37200248
-3.342511507
0.209823678
-0.344141318
-3.097484502
0.1976059981
-0.3372378584
-2.449043034
0.06083203355
-0.32690018
-1.560822753
-0.01699129004
-0.3264705791
-0.5573751817
-0.2174118137
-0.3324701062
0.3861182228
-0.3498209872
-0.334574071
1.132143057
-0.5397024305
-0.3261030906
1.607134971
-0.5833534409
-0.3109274819
1.854948319
-0.5734762819
-0.2512475095
1.967509636
-0.383234413
-0.1780910425
-0.1806616728
-0.0537819061
2.806903198
0.1726428039
-0.1431919712
2.551593585
0.2333501832
-0.0968534056
2.136594124
0.4734690273
-0.3400960755
1.44444634
0.3906454276
-0.2612319639
0.5733088528
0.479053348
-0.4243440967
-0.4925841001
0.2867528228
-0.3416468025
-1.571093363
0.3271960463
-0.4116578025
-2.521935413
0.2069306651
-0.3668620805
-3.165258809
0.2932939461
-0.3827337009
-3.383251242
0.2470395066
-0.3437142855
-3.145359504
0.3372751954
-0.3518390637
-2.513903129
0.2590583141
-0.3196007159
-1.638539473
0.2400560129
-0.3229267417
-0.6397805469
0.06443110299
-0.3187936328
0.3171633874
-0.04800221946
-0.323894373
1.101299933
-0.2645923906
-0.3140155023
1.631291216
-0.3348807592
-0.2992353462
1.938477394
-0.3887356383
-0.2406787605
2.092769709
-0.2540768802
-0.1712015537
-0.1386019934
-0.05183714503
2.899936453
0.1307545537
-0.1449532171
2.615561949
0.05640941892
-0.100949795
2.157984077
0.2370263426
-0.3460122889
1.431641003
0.07065006961
-0.271864305
0.5414244552
0.1544615893
-0.4351457078
-0.5216792928
-0.0386749161
-0.3556332142
-1.587551346
0.06217279762
-0.4205558645
-2.522987769
0.01021482284
-0.3774443451
-3.157394689
0.2105525864
-0.378605952
-3.378494159
0.2700544932
-0.3434352466
-3.162339001
0.4794301344
-0.3272941799
-2.558028873
0.4862210128
-0.3052456606
-1.707124109
0.5429782084
-0.2952252639
-0.7236324508
0.4041349606
-0.2953859453
0.236692718
0.3177999467
-0.2969081883
1.05032999
0.0865235878
-0.2893069884
1.62917642
-0.01197490414
-0.2747690897
1.986514585
-0.1436396226
-0.220027723
2.179200683
-0.08436453105
-0.1580001562
-0.08167207286
-0.04752748327
2.939186275
0.07666785356
-0.1447766448
2.633185986
-0.1516908036
-0.1105488368
2.148613452
-0.04695305505
-0.3539038695
1.406104496
-0.3035065076
-0.290449162
0.512760115
-0.2280864482
-0.4533020198
-0.5284542477
-0.4168274983
-0.3786869875
-1.565336114
-0.2496006875
-0.4434183396
-2.4734413
-0.2273658045
-0.3958639223
-3.091988456
0.09378637758
-0.3953742668
-3.31860956
0.2687314918
-0.3474546814
-3.127231013
0.6089321674
-0.3288941061
-2.561759286
0.7146110655
-0.2899518677
-1.747459346
0.8641305025
-0.2767501231
-0.7933569548
0.7719202132
-0.2665766666
0.154326742
0.7201537926
-0.2647021513
0.980484532
0.4742518325
-0.2539114346
1.591693938
0.3480685082
-0.2392597925
1.988189245
0.1372729875
-0.1904423857
2.209388578
0.1078559687
-0.1372027174
-0.01780781557
-0.04220338365
2.917884654
0.01695017633
-0.1451912298
2.601687864
-0.3704721808
-0.1208937423
2.108391621
-0.3467789838
-0.3641671006
1.370554545
-0.6977877283
-0.3118477668
0.495882145
-0.6313809334
-0.4737481233
-0.5064350767
-0.8183243513
-0.4070161481
-1.499883588
-0.5880935779
-0.4659811512
-2.366632902
-0.4967322348
-0.4175103997
-2.965637254
-0.05886590198
-0.4034804964
-3.200334739
0.2274239208
-0.350093276
-3.045644693
0.6981954957
-0.3112578916
-2.529589688
0.9090257307
-0.2722087896
-1.76457511
1.157132683
-0.2457649787
-0.8518315016
1.120387511
-0.2330548773
0.0704290634
1.111438679
-0.2248140627
0.8921068178
0.8589036744
-0.2118961994
1.520715843
0.708221621
-0.1987395672
1.941444114
0.420156969
-0.1553752199
2.182223261
0.299691357
-0.1149173508
0.04587069142
-0.03395687861
2.828358618
-0.04289175004
-0.143906206
2.513569263
-0.5793318861
-0.1335902283
2.03241084
-0.6349770478
-0.3752197821
1.319462301
-1.077713764
-0.337185976
0.4863601332
-1.025113536
-0.4986490418
-0.4599662799
-1.218420918
-0.4400958637
-1.393021091
-0.9361883096
-0.4969586782
-2.207032787
-0.7865937795
-0.4427438831
-2.777102391
-0.2486335254
-0.4228162129
-3.017999267
0.1350481894
-0.3563424607
-2.901902973
0.7234973829
-0.3071620678
-2.447016542
1.036539656
-0.2542234014
-1.744544643
1.386928663
-0.2193561365
-0.89047616
1.411794546
-0.1957286193
-0.01073317592
1.452035818
-0.1801826206
0.7874273959
1.205298043
-0.1640554297
1.413153232
1.03656355
-0.1507687935
1.841704444
0.6796919411
-0.1175071533
2.089326763
0.4747024761
-0.0875403035
0.1032747877
-0.02685368284
2.679468092
-0.09707186822
-0.1408918906
2.378000597
-0.7663762119
-0.145929803
1.923481977
-0.8938371585
-0.3837276601
1.25527522
-1.423733957
-0.3620237486
0.4810891723
-1.389066987
-0.5192110778
-0.3927541008
-1.598917713
-0.4715708922
-1.252406741
-1.279689946
-0.5211622022
-2.003041554
-1.091852638
-0.4658990963
-2.539519476
-0.4767209639
-0.433584728
-2.784273765
-0.01969965681
-0.360177352
-2.710588681
0.6673622659
-0.2959147778
-2.323179507
1.071215617
-0.2370399718
-1.694167909
1.521018015
-0.1907771849
-0.9112547229
1.613197489
-0.1597465073
-0.09044972083
1.708930032
-0.1380032008
0.6697851782
1.477923232
-0.1176261149
1.277958808
1.30242706
-0.1072901652
1.700807963
0.8916201791
-0.07936612087
1.946933324
0.6187403674
-0.06440332339
0.1494165987
-0.01714783353
2.471457959
-0.1406478437
-0.1368762302
2.193747386
-0.92433583
-0.1578628234
1.779599192
-1.114877483
-0.3919251853
1.172576478
-1.723351718
-0.3857595816
0.4737040466
-1.7118603
-0.540451349
-0.3125900591
-1.95111905
-0.4992755784
-1.084946368
-1.612425001
-0.5454703039
-1.763328082
-1.4082118
-0.4831940018
-2.257496718
-0.7432579058
-0.4449103186
-2.500217551
-0.2370023023
-0.3605031046
-2.464370703
0.5245271395
-0.2879174061
-2.147527266
1.002911521
-0.2177735884
-1.602453782
1.54263913
-0.163401365
-0.9039121631
1.705250373
-0.1240939576
-0.1585519482
1.860854863
-0.09413378259
0.5443903095
1.657568471
-0.07292427576
1.114547268
1.488957927
-0.06048255105
1.517002773
1.045342483
-0.04408454351
1.750434344
0.724235367
-0.03725125766
0.1835671947
-0.01089544007
2.219859152
-0.1733067376
-0.1280546294
1.97362397
-1.049293007
-0.1651262658
1.60711328
-1.294681968
-0.3859911341
1.072979611
-1.971993144
-0.3974551292
0.4574181917
-1.988595586
-0.5405562356
-0.2309420308
-2.265356056
-0.5112454966
-0.9085830823
-1.924763857
-0.5477908637
-1.507860207
-1.727572789
-0.4872935408
-1.953948428
-1.038633921
-0.4400825664
-2.188422965
-0.5085642646
-0.3540383045
-2.186611558
0.3033327649
-0.2738857399
-1.937468747
0.8356549056
-0.2001389171
-1.479250483
1.450882984
-0.1412536022
-0.8723921722
1.68066983
-0.0963724825
-0.211245086
1.901465242
-0.06450623985
0.4217115597
1.735732019
-0.03844179902
0.9435536571
1.590211687
-0.02980040462
1.315351489
1.134540505
-0.01499255023
1.531503456
0.7896588059
-0.02077604741
0.2035117479
-0.00243725631
1.925159716
-0.1942841442
-0.1190849586
1.71569848
-1.142494778
-0.1652499328
1.404865284
-1.429649453
-0.3742297934
0.9511813423
-2.166657732
-0.3945380197
0.4298249049
-2.210781365
-0.5305132271
-0.1527207428
-2.531123173
-0.5034715729
-0.7269305718
-2.20342911
-0.5373866999
-1.24055289
-2.033493229
-0.4717342814
-1.628930479
-1.344169483
-0.4248476704
-1.846485407
-0.8169780446
-0.3348510774
-1.871501496
0.01946379504
-0.2550639248
-1.685855467
0.5864354195
-0.1774289458
-1.315624083
1.260120329
-0.1162209317
-0.807975201
1.550577696
-0.07006445514
-0.2440584263
1.8369492
-0.03301371083
0.304866804
1.718883764
-0.009886267707
0.7620565596
1.609324266
0.002220160292
1.09148922
1.16386281
0.007069255184
1.281348124
0.8147688461
-0.001129163989
0.2112391947
0.0002990820695
1.60692033
-0.2076892638
-0.1025699127
1.435575133
-1.20470285
-0.1568748221
1.180822576
-1.520510587
-0.3375358426
0.8106970644
-2.304422124
-0.3694257295
0.3847853818
-2.374189996
-0.4825964591
-0.08954259028
-2.73877271
-0.4676969781
-0.5600325411
-2.436351719
-0.4881950057
-0.9824073236
-2.305703522
-0.4333977548
-1.310936074
-1.636900606
-0.383607792
-1.504354205
-1.133430485
-0.3038549998
-1.547082532
-0.2920206596
-0.2274598857
-1.415540966
0.2900170583
-0.156667659
-1.126623033
1.00723739
-0.1003023453
-0.7168638847
1.348188385
-0.05485609257
-0.2510684918
1.69822396
-0.02265052579
0.2080879548
1.630652016
0.004144078202
0.5961755027
1.566954301
0.01188451034
0.8764404608
1.143412165
0.01976072663
1.037875037
0.809060277
0.003494708334
0.2071681079
0.0056952351
1.26322399
-0.2129548176
-0.08734016855
1.13108767
-1.242924974
-0.1363502153
0.9358503798
-1.574336943
-0.2928700646
0.6509375819
-2.394892791
-0.3208629862
0.3249761015
-2.485264275
-0.4208550878
-0.04073536562
-2.893872078
-0.4035542714
-0.403465041
-2.619300302
-0.4244802652
-0.7310913273
-2.535446858
-0.3696538306
-0.990971362
-1.897280966
-0.3298266635
-1.153528504
-1.429256958
-0.2554918808
-1.201057263
-0.5961616111
-0.1903940321
-1.115810613
-0.0108053936
-0.1264608955
-0.9042811257
0.7377575569
-0.07577792776
-0.5927498085
1.120497648
-0.03679732026
-0.2327952552
1.525093303
-0.004389360417
0.1273552334
1.507084958
0.01587645335
0.4337256805
1.487303322
0.02708102228
0.6565126636
1.094310847
0.02497489941
0.7832861419
0.7808106019
0.01386433177
0.197476266
0.004181757025
0.9132915293
-0.2162413824
-0.06262276669
0.8184460912
-1.264371191
-0.1080735147
0.6777514112
-1.608574842
-0.219608529
0.4762963275
-2.450146972
-0.2499934084
0.2448485003