/*--------------------------------*- C++ -*----------------------------------*\
| =========                 |                                                 |
| \\      /  F ield         | OpenFOAM: The Open Source CFD Toolbox           |
|  \\    /   O peration     | Version:  5.x                                   |
|   \\  /    A nd           | Web:      www.OpenFOAM.org                      |
|    \\/     M anipulation  |                                                 |
\*---------------------------------------------------------------------------*/
FoamFile
{
    version     2.0;
    format      ascii;
    class       surfaceScalarField;
    location    "5.6";
    object      phi;
}
// * * * * * * * * * * * * * * * * * * * * * * * * * * * * * * * * * * * * * //

dimensions      [1 0 -1 0 0 0 0];

internalField   nonuniform List<scalar> 
91025
(
-1.961923286
0.1185827447
-0.02596889445
-1.801062507
0.08839640826
0.3038999785
-1.367407225
0.2479439604
0.2544010883
-0.9496494852
0.257104826
0.538037305
-0.5317246531
0.3366474036
0.4350949405
-0.1691668472
0.3174421665
0.5556449749
0.2673561142
0.3924198474
0.4568457587
0.5988868341
0.2610473956
0.4728228904
0.7635158015
0.1977837466
0.3386728544
0.8174270389
0.1414817736
0.3196927169
0.9293645907
0.2876698243
0.2946473407
1.178708519
0.3804954875
0.323084009
1.385636494
0.4099777215
0.2086157564
1.280404583
0.2005765024
0.05358729715
0.7737815237
-0.09343484025
-0.08396435626
0.1214425272
-0.3992014514
-0.1262504089
-0.2530642373
-0.2556318977
-0.05082513562
-0.180217213
0.1738041719
0.004610695564
0.02057079384
0.605975054
0.01651795864
0.3650318337
-0.001951769315
-1.911355379
0.2207291757
-0.03888299547
-1.751320953
0.1321232021
0.2940586126
-1.319998743
0.3685331211
0.2253179576
-0.9342302923
0.3434113498
0.5074742678
-0.5223933991
0.489520248
0.4100531944
-0.177432261
0.4809219712
0.535302027
0.2285756509
0.6715941769
0.4294838748
0.5533088847
0.4779056015
0.4628374242
0.7534644295
0.3868111853
0.3502814588
0.8650948597
0.2503921707
0.3313909096
0.9818292117
0.4544352642
0.2757000715
1.168814791
0.598357486
0.2845150729
1.275205805
0.6858117287
0.1695546839
1.110471932
0.3968386818
0.03538691103
0.6613407097
-0.03993953768
-0.07223672736
0.194766448
-0.5588435776
-0.08725078177
-0.0366515607
-0.3585021348
-0.02766643037
-0.03104139696
0.2418447264
-0.02679318566
-0.09038366569
0.8484504344
-0.05879813015
0.4844770567
-0.0490148249
-1.846753578
0.2648941799
-0.05928405197
-1.686734617
0.1013470473
0.2826315559
-1.271181644
0.3634532752
0.1960728171
-0.9179559851
0.2859749535
0.483829917
-0.4893752191
0.5247726834
0.386797088
-0.151444309
0.5264293135
0.5146808948
0.1898520427
0.8354452694
0.3917826888
0.4848061615
0.6614992292
0.4590312689
0.7255677512
0.6221628786
0.3768735028
0.9213675107
0.4117267861
0.3684619228
1.0901148
0.5936775371
0.2545714653
1.191815506
0.6763411178
0.2252188266
1.140897998
0.7998228713
0.100375794
0.8701926713
0.4962982595
0.0009847181611
0.4718841435
0.09483375272
-0.05918738466
0.2654797093
-0.4591951828
-0.02776126054
0.2522066608
-0.2423056053
0.0160537501
0.1801674556
0.2157230472
-0.05582089124
-0.2371809678
0.6461461046
-0.1585494416
0.3096529962
-0.1082840938
-1.790314709
0.2478485548
-0.07999532635
-1.621496267
0.02514464782
0.2765968935
-1.231877997
0.3392022908
0.1964729674
-0.8854431033
0.2351388529
0.4853139252
-0.4241224842
0.6269074474
0.3935973457
-0.08886192895
0.5897625623
0.5091208382
0.1811217644
0.9557493372
0.364094739
0.4174598863
0.8102211835
0.4538041325
0.6778922515
0.9328030047
0.4015250655
0.9509150142
0.7018648253
0.4003213506
1.168293843
0.8378343853
0.2322273282
1.22619098
0.7718799949
0.1589081408
1.047968058
0.8256533449
0.02516955702
0.6616844622
0.4435194525
-0.0530331765
0.2970349711
0.1557819841
-0.05468829611
0.2971714065
-0.238585902
0.02586733819
0.4718248131
0.02906081837
0.06024446671
0.3234260462
0.1663610786
-0.07110850647
-0.3424971122
0.2408938476
-0.2160448245
0.002427644738
-0.1409475359
-1.754744481
0.1918623172
-0.08921728746
-1.57250127
-0.06037397902
0.2839032191
-1.178087698
0.4148963668
0.2191793175
-0.8017843794
0.3227608341
0.5085740521
-0.3344504243
0.8831758608
0.4009477904
-0.01680083779
0.7387929275
0.5156904437
0.2127128073
1.081469931
0.3521727321
0.407659961
0.9394512716
0.4567824661
0.6628731453
1.266257912
0.4099620437
0.9541579259
1.059598873
0.4149181803
1.180749314
1.168667615
0.1956908875
1.194816224
0.9013257351
0.1006458131
0.9374699047
0.8232186669
-0.04952958011
0.4972630521
0.2586950861
-0.08036419066
0.1836425071
0.05021784712
-0.04650099122
0.311278267
-0.08282853034
0.0708529501
0.5430288995
0.3213328671
0.0726916009
0.3257626948
0.1495732486
-0.08229327505
-0.3921836907
-0.06237016724
-0.2135102207
-0.2381729809
-0.1325447052
-1.709035618
0.14526703
-0.07494903172
-1.510937591
-0.09378043994
0.3127878236
-1.071018159
0.6365245262
0.254875526
-0.6835309691
0.5653989557
0.5198946794
-0.2547884494
1.209013986
0.394159432
0.0256133131
0.917126381
0.5209760745
0.2559094325
1.253520883
0.3548992614
0.4430695599
1.055825614
0.4454046082
0.6658251186
1.527150965
0.374103676
0.9211070293
1.314949504
0.3684812438
1.107546048
1.4471001
0.1154903871
1.067673275
0.9951335397
0.01830619839
0.7615301195
0.8001967488
-0.108347237
0.3673274169
0.06916483046
-0.08748329191
0.1861526164
-0.03886593635
-0.01501958885
0.3700232247
-0.01517209748
0.07265521178
0.5061568677
0.4762368301
0.03101764446
0.2106942827
0.1265641337
-0.1030788369
-0.3951351773
-0.1652459204
-0.1645482781
-0.3191763773
-0.0865576166
-1.647645697
0.1694719193
-0.03712609716
-1.405437303
-0.06844817829
0.3626391097
-0.917924703
0.9529966521
0.2739659781
-0.5419606424
0.850428026
0.512781557
-0.2005364034
1.485190083
0.3644878056
0.04535138944
1.022040977
0.5284202081
0.3230628784
1.434265983
0.3652726159
0.5365323577
1.138938798
0.4290485577
0.7151967419
1.62764893
0.3122953201
0.8787519205
1.315171761
0.2954524891
0.9569617063
1.460044834
0.03613612363
0.8378055122
0.8688075897
-0.03876769735
0.5169203365
0.7014246195
-0.1318157632
0.2562109514
-0.02446782044
-0.04822052495
0.2561246749
0.04964310558
0.02747637629
0.4656844917
0.03642911651
0.04517116738
0.4232357957
0.438293402
-0.04994534089
0.05036287406
0.002250980065
-0.1397407292
-0.4076234816
-0.2025068547
-0.1137785233
-0.3167569741
-0.04299254095
-1.521029324
0.2838825772
0.01035816523
-1.196726795
0.007547077478
0.416445534
-0.7336331272
1.268600432
0.2719850231
-0.4406206502
1.082253018
0.4735604418
-0.1908018003
1.627055641
0.3302572404
0.04579255033
1.040515431
0.5275429453
0.3569310621
1.591990244
0.3675703721
0.5878779841
1.168601606
0.3906969321
0.7175348534
1.580921025
0.2289100697
0.7923057886
1.07986712
0.1955753725
0.7889637727
1.233056605
-0.06422317886
0.6041474702
0.5434411212
-0.09735999186
0.3047789542
0.5264110654
-0.1460146934
0.1811228428
0.02158293693
-0.02208912689
0.3547243243
0.3456048107
0.04613878379
0.5520368472
0.1678720362
-0.000993332109
0.3352718574
0.2862614895
-0.1453066081
-0.0835991609
-0.2983494326
-0.173858646
-0.4046442065
-0.3223994369
-0.07438810342
-0.3184419366
-0.005572936166
-1.358223349
0.4580131731
0.03973154871
-0.9407181229
0.1406240864
0.4481185995
-0.558248984
1.445706928
0.2342569632
-0.4058190104
1.112632166
0.412835506
-0.2022956694
1.657677922
0.2990763083
0.06231141652
1.009721832
0.5248822105
0.3820452782
1.666194443
0.3598951485
0.6027257804
1.109928188
0.3590497367
0.6914088482
1.45341811
0.191136949
0.6964072477
0.7866733386
0.1542854227
0.6326319256
0.9301891461
-0.04495667254
0.4406495969
0.1763926525
-0.07997993037
0.2018696987
0.3239824564
-0.1104922498
0.1710666999
0.08858852057
-0.008864883036
0.3721989242
0.6751430751
0.01871231429
0.4924940436
0.3270732033
-0.07241718062
0.1996098106
0.1153039804
-0.1953975926
-0.1644179342
-0.6273461919
-0.1601990016
-0.3374185386
-0.4649950148
-0.01980874306
-0.3668057758
0.01996489266
-1.144370963
0.6529027758
0.04249572527
-0.669373542
0.3026275019
0.4335667262
-0.4049236313
1.440258549
0.1816345442
-0.4001688957
0.9521522519
0.3517633511
-0.2188936328
1.646955216
0.2860776905
0.07360883953
1.02443218
0.5128816888
0.3570849871
1.676017914
0.3368194891
0.5155904577
0.9987107978
0.3247706689
0.5594738021
1.347019693
0.1643294677
0.5423810217
0.6187002802
0.1387842202
0.4874228352
0.8159640583
-0.03091508493
0.3724174712
0.01325741832
-0.04380704309
0.2481330834
0.2341446474
-0.07681132657
0.2663315733
0.07468301957
-0.03656204415
0.328981782
0.7959953121
-0.07400842267
0.2839120558
0.3071964847
-0.1616706093
0.009538753706
-0.03348348621
-0.2016120716
-0.2039946357
-0.7878601839
-0.09782474648
-0.1936558457
-0.4727270972
0.04579277143
-0.3840586418
0.04581837502
-0.9349755707
0.8212043014
0.01433670495
-0.4864820452
0.4132460603
0.373006723
-0.3117772995
1.306580507
0.125800679
-0.3882930038
0.6800887894
0.3169175738
-0.2091104424
1.664702255
0.2850501656
0.08382358301
1.094762298
0.4918428939
0.323957423
1.669338831
0.3075013594
0.4313402851
0.8570276557
0.3053901001
0.4483647392
1.262939096
0.1742491225
0.4049559189
0.5718021461
0.1462642094
0.3422319364
0.8791138582
0.02331325218
0.3265602671
0.08769113549
0.0216890873
0.3540774037
0.2878122169
-0.01956089597
0.390978344
-0.0590528458
-0.06180454181
0.2342204722
0.4911123026
-0.183809679
-0.004506370933
-0.01669469174
-0.233732517
-0.2285015994
-0.1559075662
-0.1661714548
-0.2062906139
-0.6837380859
-0.01777640583
-0.01707474373
-0.2692943186
0.1037505249
-0.3105839514
0.06048987835
-0.7013335911
0.8814949541
-0.02217960111
-0.373017443
0.3930606437
0.2829815395
-0.2278764683
1.14494701
0.1025293804
-0.2931248421
0.4271816745
0.3133888977
-0.1593899852
1.688893001
0.290976914
0.05317342004
1.162185183
0.4513990487
0.2348222536
1.660429543
0.2767095492
0.3303653205
0.7303188203
0.2883592342
0.34675938
1.176610638
0.1824900194
0.2849426376
0.5282495649
0.1376744688
0.2013310247
0.9641530267
0.02640462874
0.2343501571
0.2558653105
0.04222510976
0.3712890382
0.4238917179
0.009211685409
0.4392980166
-0.2270290152
-0.07496657453
0.1512518076
-0.04132377228
-0.2448000888
-0.1922006503
-0.4954698894
-0.2587241561
-0.3433399197
-0.2405665342
-0.1254530453
-0.1740840089
-0.4576505187
0.02723226415
0.1128437691
0.02908366339
0.108184278
-0.1876448906
0.05429669256
-0.5278434078
0.8303953195
-0.06013477273
-0.370304029
0.2308249355
0.202719886
-0.1707484928
1.034259052
0.1002846954
-0.1323343858
0.2813042963
0.3320414814
-0.06692998604
1.654349929
0.2699741974
6.755373448e-05
1.09612126
0.3853381967
0.1232287338
1.630919174
0.2311045217
0.248550444
0.6180597098
0.2698529584
0.3089230191
1.07127423
0.1814761286
0.2366009983
0.3691862393
0.1236143612
0.107290906
0.8723640529
0.0096587275
0.1048355612
0.2630438315
0.0234145573
0.2469729457
0.4920736106
0.01732051445
0.3367422535
-0.3530327633
-0.06424443637
0.0935679653
-0.417796107
-0.2074668854
-0.206077539
-0.8287164695
-0.2074682518
-0.280158335
-0.2546404458
-0.07651449976
-0.08198067432
-0.2833251654
0.02353600503
0.1658586046
0.2536969638
0.05283602677
-0.1145867868
0.01957189161
-0.3425750517
0.702366503
-0.07462271473
-0.3320642053
-0.03174435234
0.1517372335
-0.07276259203
1.019388863
0.1259149955
0.07485823067
0.2304722987
0.3412612053
0.04573104356
1.512441004
0.230352884
-0.06744199131
0.8169171399
0.2949867744
-0.02067442163
1.502914092
0.1941991135
0.1395082889
0.4897575954
0.2397394519
0.2397593668
0.9495247943
0.1728348836
0.1958142743
0.1064992167
0.1010759203
0.04306650669
0.5760282374
-0.02003473828
-0.03786953738
-0.002985377286
-0.03592526515
0.02650837
0.3928277891
-0.0176572657
0.1211539878
-0.4052179543
-0.05163702014
0.04842624662
-0.3779456774
-0.1105211543
-0.08634818207
-0.7521776741
-0.1090340539
-0.1069410081
-0.1310944869
-0.04421430034
0.002444917922
-0.2607592268
-0.01377687437
0.1451500829
0.1750801587
-0.02614458965
-0.179719424
-0.01482545154
-0.2369133139
0.5708003554
-0.07520903376
-0.2818639112
-0.2907864812
0.1261534562
0.004270116963
1.056922376
0.1331496415
0.199890814
0.2025803887
0.3142345935
0.1173610707
1.249765611
0.1542484147
-0.1151081338
0.3609837484
0.1992882587
-0.1270135364
1.23288032
0.1348171832
0.03125532736
0.3112916992
0.1966591326
0.1561679848
0.8224333683
0.1442268443
0.1556541118
-0.1543538812
0.08930495707
0.02941405879
0.2387228465
-0.02429994159
-0.09992818929
-0.4140133517
-0.07503103818
-0.1338138878
0.14077495
-0.06137253235
-0.0370196307
-0.3872898275
-0.03914273606
0.03737805813
0.01790950834
-0.021620173
0.03662055142
-0.2974511341
-0.03054431053
0.02011996749
0.1254734117
-0.0213710234
0.08292735747
-0.3233566244
-0.04382398267
0.1409543094
-0.1296270977
-0.0753896457
-0.3448308871
-0.03060724398
-0.116066678
0.5117167601
-0.05421827762
-0.1215932843
-0.4574785953
0.1098829233
0.1201662342
1.057784899
0.1221119742
0.2569420388
0.1055612983
0.2613340667
0.1452279258
0.9220587812
0.1023354978
-0.1231653236
-0.1351312453
0.1283919116
-0.1884765381
0.8600210507
0.09960764553
-0.09677447252
0.07374682801
0.1570986644
0.009777458044
0.6937620463
0.1230787595
0.03916734714
-0.2862365616
0.08963941482
-0.0266141641
0.06784832149
0.00857760145
-0.1156309352
-0.6853858062
-0.0507651033
-0.1518664622
-0.03840449546
-0.06684423078
-0.05338522081
-0.3014170078
-0.03436121878
0.05620809237
0.4573377507
0.003704260025
0.0438826143
0.1586638898
-0.01288177823
-0.017586499
0.3893672839
-0.02880322474
0.04025740106
-0.3469383555
-0.04198893209
0.1939676787
-0.3387609747
-0.04806774505
-0.454372223
-0.001074952553
-0.06813281144
0.5386827123
-0.03656852101
0.01098306648
-0.5211297707
0.08688221564
0.1547332504
0.9325520735
0.06583250859
0.1837903857
-0.1335737168
0.1844253834
0.08493250537
0.6072395107
0.05091897316
-0.1118036389
-0.5370468661
0.08048417244
-0.1801628539
0.5128219963
0.0564631678
-0.1621321441
-0.1807279944
0.1159848676
-0.1183806793
0.5835509992
0.07704153527
-0.08689802678
-0.2691567051
0.08191795216
-0.08083894954
0.1719956439
0.05634381716
-0.05291567962
-0.5719792671
0.03027119062
0.00370101881
0.0343103044
-0.01884834806
0.1060953036
-0.1871509237
-0.03718005281
0.1121846812
0.6231347536
-0.03145858581
-0.04941021929
0.2975240529
-0.0579370714
-0.1990019627
0.5032044974
-0.05432283225
-0.07449055654
-0.2015481039
-0.01382776095
0.3018634802
-0.1223583104
0.04978430384
-0.3438715336
0.04979016076
0.01303990667
0.6159770018
-0.01479515168
0.1321169946
-0.5189635934
0.05994619624
0.1790430293
0.693195147
0.02102771906
0.1036858951
-0.4764984146
0.11562729
0.0271694873
0.3667375678
0.04947247593
-0.06698011721
-0.7517941395
0.06840222999
-0.1234246864
0.275621508
0.05389444586
-0.1614284415
-0.4045260614
0.08863774136
-0.1968589819
0.470290309
0.05527956353
-0.1980495571
-0.2007668482
0.06031061712
-0.1639828224
0.4330588883
0.0930083743
-0.04555281401
-0.1841176071
0.1037420143
0.1364937914
0.3867739904
0.05207266731
0.2650423091
-0.02286973882
-0.02068539002
0.1682519001
0.504792746
-0.07574398969
-0.1585113873
0.04385065697
-0.1145114255
-0.3960331641
0.4048221053
-0.0878783205
-0.1938938405
0.06951903565
0.01769422294
0.3538177957
0.4388201606
0.1286955824
-0.032569187
0.1010081027
-0.0003739247719
0.7009362211
-0.007379446793
0.120423374
-0.4875858567
0.03092464696
0.1142639484
0.4732866897
-0.01965884378
-0.00858199515
-0.8160411677
0.04720119127
-0.05227962242
0.2304324087
0.02952272437
-0.03179558086
-0.7504698141
0.05237704007
-0.04331764374
0.2055990152
0.02500758246
-0.09264500814
-0.5537481543
0.04954566821
-0.1471659411
0.3597573951
0.01653878244
-0.1993385233
-0.1791734968
0.02192900182
-0.1679337106
0.6835296528
0.07333639545
-0.01452899911
0.2843331689
0.1337081728
0.2010221145
0.8579248837
0.0933704146
0.329531083
0.2068035747
0.004040543603
0.196155945
0.3119825749
-0.08372024778
-0.1604331686
-0.3885218212
-0.133622747
-0.3954413391
0.1995288865
-0.09007943256
-0.2094750443
0.3252124164
0.02351717793
0.292964064
1.004390393
0.143478656
0.3207180662
0.1005466879
0.03993657462
0.00369135857
0.0814344709
0.008438591574
0.06442897925
-0.01102110146
0.004324941563
0.02960968944
-0.0171974926
0.02567521626
-0.001522906911
0.02901938985
-0.004867305366
0.02302196989
-0.04174544086
0.01961126258
-0.08551375793
0.01008554253
-0.101299879
0.01502845289
-0.09439210075
0.03991217844
-0.02298420337
0.06429074371
0.0993571026
0.06227631407
0.1623220502
0.003187241471
0.08853221512
-0.04666141432
-0.08716405684
-0.06834020214
-0.2096745304
-0.04933043508
-0.1223526645
0.01496047216
0.1253009071
0.07318966112
0.04708933323
-1.672425785
0.05204449708
-0.09532831313
-1.539101188
0.02422245585
0.5609170584
-1.163568261
0.1435143701
0.3768539629
-0.8770779032
0.177521922
0.9592214074
-0.5062404444
0.2804958783
0.7806857468
-0.2027297578
0.2601138558
1.093315272
0.1522026775
0.3000567603
0.871615269
0.4569629725
0.248265944
0.9653975679
0.6780742803
0.253199592
0.774651466
0.8245066128
0.2102276244
0.7122835155
0.9098676523
0.2171319636
0.5609961788
0.9906192812
0.2398090218
0.5658047904
1.069110315
0.2222003706
0.4197275156
1.027841328
0.08750287705
0.2030463754
0.6986721951
-0.08470374024
-0.009581910148
0.2007476633
-0.2397046881
-0.1231893191
-0.1661701112
-0.1329732229
-0.02406402392
-0.16192554
0.0941211886
0.06508919981
0.02351956442
0.3015908349
0.08839598095
0.1955721558
0.03715581126
-1.646426986
0.1128663159
-0.1004231831
-1.502857264
0.04064422926
0.5628972464
-1.117820661
0.266640132
0.3373528105
-0.84240574
0.2894801036
0.9070989199
-0.4960845897
0.455459049
0.7319928227
-0.2088991839
0.4149395982
1.050152831
0.139904352
0.5399770971
0.8207928701
0.4431242439
0.4763328871
0.9280626495
0.6652085077
0.5011447566
0.7656334266
0.8247278117
0.3919062762
0.720447879
0.9200155553
0.3551159481
0.5443718377
0.9679617627
0.3655392145
0.5250165753
0.9910130999
0.3702401083
0.3869785443
0.9222160204
0.2031819631
0.2016612705
0.640638513
-0.02558178103
0.01690401904
0.2535361585
-0.2915232979
-0.07742270355
-0.04286343979
-0.1486163328
-0.005991988916
-0.07949168135
0.1461148173
0.01872112341
-0.03262666444
0.4559455203
0.002467656334
0.2696397695
-0.01892550061
-1.606333962
0.1689905231
-0.1160255842
-1.449759888
0.04673698811
0.5682979519
-1.059347555
0.3561906649
0.3110094372
-0.8011171004
0.3150445272
0.8758795395
-0.470383831
0.5499981377
0.6874323195
-0.1905036242
0.4996332794
1.011309102
0.1442524391
0.7253993498
0.7564533553
0.4296934699
0.675559193
0.8945120126
0.6337538766
0.7556665574
0.7539868416
0.8028196735
0.5726024778
0.7499818149
0.9361737387
0.4712031842
0.5155079815
0.9611817905
0.4176954921
0.470576343
0.9133171915
0.4501364773
0.3072883856
0.7890621055
0.3088127196
0.1709953837
0.5357353161
0.1317710976
0.03228298084
0.2999316192
-0.1713396239
-0.01181689747
0.1039392559
-0.04621289813
0.02576745249
0.01644692158
0.1455067458
-0.03623046707
-0.1130964689
0.410233096
-0.1228550824
0.196879322
-0.09825148292
-1.555713014
0.2204831294
-0.1351547823
-1.386613353
0.06389462054
0.5762163699
-1.002664033
0.4267698566
0.3351056788
-0.763947798
0.3091349587
0.8941848513
-0.4292572262
0.6483908662
0.6850870623
-0.1443916508
0.5928073387
0.9985472178
0.1695573953
0.8939558204
0.7250839399
0.4147968371
0.8316950431
0.8708426765
0.5791907078
0.9782286229
0.7501686977
0.743148049
0.7519005003
0.7723593678
0.9172325615
0.62553876
0.4804667919
0.9671262223
0.4913709258
0.3937214669
0.8748285165
0.5246519571
0.1927632321
0.6903043514
0.368613964
0.09085192227
0.4489483399
0.2646863715
0.02186698173
0.3204219318
-0.03641194743
0.03538768235
0.2142010381
0.07370782208
0.05052960805
0.09151409433
0.1069237143
-0.08117068794
-0.1799398466
0.2604114476
-0.2079471
0.05451446271
-0.1493941482
-1.499965535
0.2774428898
-0.155753624
-1.328091032
0.1095126943
0.5895046671
-0.9484142003
0.5347248779
0.3815340372
-0.700036029
0.3526977291
0.9465961736
-0.3569253736
0.8278172203
0.6842286336
-0.07663898519
0.7435006349
1.011724195
0.2194401459
1.078572723
0.7179038853
0.4253295869
0.9397382072
0.8626135995
0.5330956183
1.156718069
0.7159166642
0.6732166035
0.9183804188
0.7706758996
0.869467018
0.8405164215
0.4021574446
0.9522056292
0.6007817102
0.3257600849
0.8383886337
0.6128821201
0.06546703028
0.6110407577
0.3491186787
0.01852800328
0.368381492
0.267384058
-0.000689650593
0.2971796429
-0.02198929542
0.06498167569
0.2440608377
0.1349963838
0.04953880695
0.1010301496
0.04658014521
-0.1088962354
-0.2293833241
0.1349790556
-0.2278858192
-0.06148560311
-0.1549413433
-1.416227431
0.3370011858
-0.1589254385
-1.26075733
0.1734741511
0.5994528102
-0.8865281662
0.7210589535
0.4259389481
-0.6152271767
0.4948566351
0.9756117099
-0.2790932445
1.082579077
0.6713748315
-0.02452024329
0.9206767764
1.016717235
0.2472585884
1.279279085
0.7366318031
0.4228284974
1.008763909
0.8358600543
0.4899675241
1.270384876
0.6291610611
0.5899338166
1.013906223
0.7031630962
0.7876334749
1.04223498
0.2816806216
0.8929060617
0.7096887676
0.2224429604
0.7724881193
0.6893502753
-0.05697586676
0.5316767132
0.273047158
-0.04564270548
0.315664013
0.1925750847
-0.00537056018
0.2856384144
-0.1028454496
0.05223183511
0.2490748704
0.1156862254
0.0005619944452
0.08651943522
-0.01181872479
-0.1448075515
-0.244489253
0.09104317807
-0.2068034065
-0.108955083
-0.1207323592
-1.302267847
0.3839459825
-0.1439614419
-1.179305144
0.1945494353
0.6170459385
-0.8055520556
0.9400643677
0.4306667632
-0.5104794871
0.6805211017
0.9652814297
-0.1957679672
1.332644206
0.6293069585
0.01685360972
1.024832327
1.020925382
0.268290543
1.457452832
0.7568419719
0.4410943865
1.037555783
0.7943025454
0.4839856659
1.337451202
0.5087150163
0.5356178561
0.9886580859
0.5975959219
0.7022290285
1.160961815
0.1419524315
0.7800838529
0.7062518164
0.1670356567
0.6459479195
0.7067723178
-0.1309783045
0.4160660504
0.1609850964
-0.04787411588
0.2580087897
0.1431058971
0.01273921081
0.2874685189
-0.1848611344
0.02612893497
0.2468733671
0.06788808676
-0.08447329189
0.06119157881
-0.09656396385
-0.1974454067
-0.2637876042
0.06557523571
-0.1816442184
-0.1324528513
-0.0811611293
-1.135382293
0.4086589723
-0.1044751765
-1.052621956
0.1352660748
0.6453792965
-0.6998641679
1.1148391
0.4087749994
-0.4103269782
0.8392678987
0.911847241
-0.1453658824
1.505914075
0.5848387982
0.02358755371
1.033740976
1.013087652
0.2389497695
1.575768786
0.7492681684
0.4086040681
1.03395107
0.7302056684
0.4551057013
1.381231819
0.3632106828
0.4634081418
0.8654389326
0.4603548406
0.6054811889
1.177386051
-0.02954608235
0.6445917801
0.5813925686
0.06752035053
0.5070598047
0.6577239108
-0.196087731
0.3095668323
0.06422675931
-0.0592854086
0.2182813921
0.1956259123
0.01520219212
0.3082354753
-0.1593881832
-0.02495869596
0.2757121739
0.07243829114
-0.178722235
0.06610193717
-0.2160979249
-0.2472533077
-0.2630417546
-0.01587482351
-0.1631645575
-0.1887727224
-0.04534405163
-0.9723714162
0.4455321001
-0.07030331284
-0.8834050613
0.05514993407
0.6910152379
-0.5652250195
1.201408052
0.3520436185
-0.3287385862
0.8917309383
0.8344580625
-0.1072604235
1.598070176
0.5431114161
0.04253143341
0.9842490244
0.9971819313
0.2269113942
1.604763626
0.7141375517
0.3840768315
0.9886287106
0.6714277489
0.4317617849
1.369742291
0.3349999882
0.4249097663
0.7086745947
0.4080977328
0.507758559
1.07989281
0.05678508017
0.4928866934
0.3855489488
0.08417472024
0.3665215061
0.5535922532
-0.1503937528
0.2116844481
-0.022101124
-0.04779659963
0.1687851533
0.279992909
-0.008665058289
0.2819748159
-0.0713305661
-0.08980391993
0.2510257689
0.1077300994
-0.2292814533
0.05586614384
-0.3448912695
-0.2414412477
-0.2463913259
-0.1582511445
-0.1163449004
-0.2829191145
-0.02297409805
-0.8067741841
0.5250323922
-0.04292501294
-0.6692278157
0.02984291926
0.7096995602
-0.4062537433
1.21384341
0.3017136423
-0.2661367716
0.8399402963
0.7481754664
-0.1019873074
1.645146244
0.5250536149
0.0357709593
0.9543130179
0.9633493413
0.1861650314
1.58799013
0.6389306059
0.3021646197
0.9060923144
0.6072518835
0.3346256778
1.34700664
0.3103692114
0.3303701408
0.6038158419
0.385879447
0.4017481668
1.019592393
0.05214996501
0.3849817477
0.2603857029
0.06898016042
0.2834766592
0.4923693298
-0.1284154973
0.1906509591
-0.09718683165
-0.0878283064
0.1613066746
0.3155389099
-0.1102727268
0.2319402123
-0.04132126625
-0.1877591335
0.1765996629
0.1154065897
-0.2472649763
0.03571961568
-0.4502547968
-0.1771495162
-0.1792568324
-0.2633050346
-0.04383948246
-0.3623133194
0.006953496092
-0.6629603311
0.6351344804
-0.05889598205
-0.4842270705
0.05684146949
0.6689192487
-0.2531431288
1.194796452
0.2369078971
-0.2006394016
0.697515898
0.6750173745
-0.08944503927
1.663507388
0.5030405814
0.03462007852
0.938588401
0.9131845376
0.1688022956
1.544901663
0.5637364142
0.259316377
0.7810111002
0.5612689436
0.2663071144
1.28279701
0.3543358452
0.2656117419
0.522605537
0.3902304849
0.2965880848
0.9757058759
0.1380128241
0.2768680611
0.2099564546
0.1103384517
0.2142937596
0.4739785974
-0.05327300297
0.1784207235
-0.1680173637
-0.1003857534
0.1379810593
0.22610662
-0.2078415675
0.1315790975
-0.1563953956
-0.2740527384
0.05563214171
0.04941906788
-0.2247696751
-0.01151001948
-0.5061790761
-0.08657814672
-0.09187272473
-0.2658380625
0.04050625757
-0.3781964736
0.03755230706
-0.4920003024
0.7296910711
-0.09429427844
-0.3134517352
0.08206012694
0.5580401186
-0.1092957943
1.163569834
0.2047113863
-0.1143787591
0.5059139389
0.6273422012
-0.0781898576
1.61523125
0.4907539795
-0.005370045881
0.8972647426
0.8399696281
0.1007940443
1.494000712
0.5043864811
0.1760607273
0.6359621546
0.5193729863
0.1723038907
1.183600874
0.3529639766
0.1715791222
0.4252135998
0.3585994244
0.1883261313
0.9221917737
0.1173039907
0.1689389899
0.1504068813
0.08038609937
0.1437452328
0.4569699458
-0.0333640668
0.1597109913
-0.2440348188
-0.1060203506
0.1253807688
0.07256527643
-0.257960349
0.06414395712
-0.3548748748
-0.310633571
-0.03373732612
-0.03629590816
-0.2001576769
-0.0382321228
-0.5087594576
-0.03125570404
0.01404873052
-0.1712095338
0.07844611504
-0.3389725728
0.05346861915
-0.3499805928
0.7491782015
-0.1510449865
-0.2185619526
0.02805413194
0.4260325915
-0.01518542767
1.110211967
0.1793964872
-0.01033924542
0.3068411039
0.6020074963
-0.04226646122
1.463211544
0.4328668812
-0.05400844861
0.7406655353
0.7330273651
0.0376453844
1.415885624
0.4412335848
0.1280465647
0.4741747053
0.4706374575
0.1330851436
1.036877534
0.331438622
0.1249007772
0.2660483888
0.3117578678
0.1038083279
0.7793884758
0.1001055918
0.0611019926
-0.00284008101
0.0325088513
0.04159763019
0.3747487716
-0.02982604038
0.08998813153
-0.3227859219
-0.07799508846
0.09145750583
-0.02179543695
-0.2010274654
0.02605267231
-0.4864199239
-0.2570963702
-0.07209700817
-0.08714603281
-0.1549145959
-0.03183069778
-0.4684262509
-0.0259529716
0.09438555075
-0.05309867843
0.05336615907
-0.280725792
0.02843261617
-0.1848346898
0.6907182396
-0.1718220395
-0.1210483727
-0.1498216624
0.3223713391
0.07703819355
1.054152296
0.1957975276
0.09622428966
0.1318074444
0.5861295118
0.006282659181
1.236634888
0.3675890685
-0.1035276315
0.4477559632
0.5963142008
-0.05558930648
1.265156067
0.3846680099
0.03758910822
0.2978092852
0.4118763953
0.05898485135
0.8621504707
0.2865026877
0.04530591622
0.05284577421
0.2605980247
0.01275413986
0.5745127716
0.05883996229
-0.03681721925
-0.2097447302
-0.04415534803
-0.05785697932
0.228594035
-0.07455777541
0.009962247228
-0.3838395793
-0.05558523168
0.05798390082
0.01680647405
-0.0959619144
0.03051889486
-0.4410955116
-0.1422907756
-0.04626002183
-0.04557440662
-0.1087156258
8.545198595e-05
-0.4307108026
-0.05172683977
0.1565128965
0.01605558865
-0.02274181263
-0.2537100614
-0.005227082676
-0.09607094859
0.6086251874
-0.1609919346
-0.06143628189
-0.3771837388
0.2770432065
0.1224098752
0.971915107
0.1845652146
0.1498360828
-0.01258539936
0.5377848445
0.0531261555
0.9895732693
0.247687352
-0.1154994891
0.07304549193
0.4348867225
-0.1160552697
1.026567492
0.2830199201
-0.03448587298
0.09705022532
0.3409159767
0.003225371806
0.6832590574
0.2307785579
-0.002809887483
-0.1629192326
0.221730611
-0.05113430316
0.3913210688
0.04572657438
-0.09291223056
-0.3808570921
-0.07871067195
-0.1035916862
0.09887479683
-0.1058068121
-0.02757334589
-0.3965012965
-0.04099470392
0.03980641399
0.1811380739
-0.0045257287
0.03043825828
-0.2399019871
-0.04932892734
-0.02373695961
0.09272325979
-0.06217156086
0.04305534276
-0.3802633542
-0.06849680301
0.1997041366
0.01950204571
-0.0693783308
-0.2626535882
-0.02858270448
-0.005160663229
0.5670059289
-0.09862202924
0.05966258753
-0.5544636077
0.2632545708
0.193686021
0.8557249433
0.1698635875
0.1760375299
-0.17278746
0.4504232561
0.07595730668
0.7467165354
0.1817094994
-0.1057335597
-0.3038094757
0.3016434855
-0.1627469085
0.7242647421
0.2112420189
-0.1301926648
-0.1308370661
0.2955617564
-0.0874805603
0.52303778
0.2229027146
-0.09225530914
-0.3114938478
0.201662191
-0.1326097298
0.300562806
0.06714760676
-0.1454834565
-0.4199188956
-0.03740499822
-0.09856428156
0.09984494363
-0.06899107006
-0.002084891174
-0.3264068776
-0.02742636606
0.04530658666
0.3660824309
0.009378228054
0.001573966296
-0.03139322158
-0.03191289437
-0.05161052852
0.268635278
-0.05052752231
0.05071056803
-0.2935189522
-0.03974190856
0.2476940064
0.04913888313
-0.03727577801
-0.2630820494
0.005704984477
0.002122164953
0.5955284386
-0.04792902317
0.1216161586
-0.6201156892
0.2408870403
0.2118273871
0.7174731138
0.07741606322
0.127430063
-0.4039689576
0.305563211
0.03986847019
0.5252758296
0.1031800726
-0.08717780299
-0.6148038392
0.1968378527
-0.1598948048
0.4293012364
0.1025257919
-0.1728321789
-0.3587913512
0.2434683316
-0.1320554328
0.4165653142
0.1935349372
-0.1176351029
-0.3616205926
0.1612699701
-0.1574448557
0.3232941675
0.07085034619
-0.1414085493
-0.2968107287
0.06080203514
-0.0291171124
0.280147745
0.0334680857
0.09634433013
-0.1778189121
-0.0132708115
0.08150899915
0.4731031043
-0.05674198553
-0.05488831407
0.05511698076
-0.09654066801
-0.1295495308
0.3993493719
-0.05961470473
0.02399861879
-0.1271760164
0.01609797477
0.2873407951
0.2099856421
0.07976695981
-0.1978387794
0.06772908639
0.05141555501
0.6600961282
-0.003487015881
0.1934535505