/*--------------------------------*- C++ -*----------------------------------*\
| =========                 |                                                 |
| \\      /  F ield         | OpenFOAM: The Open Source CFD Toolbox           |
|  \\    /   O peration     | Version:  5.x                                   |
|   \\  /    A nd           | Web:      www.OpenFOAM.org                      |
|    \\/     M anipulation  |                                                 |
\*---------------------------------------------------------------------------*/
FoamFile
{
    version     2.0;
    format      ascii;
    class       volScalarField;
    location    "5.6";
    object      rho;
}
// * * * * * * * * * * * * * * * * * * * * * * * * * * * * * * * * * * * * * //

dimensions      [1 -3 0 0 0 0 0];

internalField   nonuniform List<scalar> 
30538
(
1.273939868
1.289362403
1.28952166
1.289465888
1.289392008
1.289290788
1.289253034
1.289302538
1.289441389
1.289609002
1.289793777
1.289965593
1.290091194
1.290133427
1.290118996
1.290056027
1.289967992
1.289868312
1.289842372
1.293894799
1.273965402
1.289395743
1.289534357
1.289457307
1.289378733
1.289290195
1.289273161
1.289335401
1.289473442
1.289625758
1.289774798
1.289907159
1.290030567
1.290127141
1.29019259
1.290186724
1.290090366
1.289938366
1.28985576
1.29385607
1.274125807
1.289420101
1.289516059
1.28940402
1.289321016
1.289259869
1.289265388
1.289334798
1.289471731
1.289614915
1.289739846
1.289833889
1.289950833
1.29010373
1.290253739
1.290323429
1.29022573
1.290008689
1.28985427
1.29387676
1.274192237
1.289448542
1.28948057
1.289332687
1.289259005
1.289227425
1.289242765
1.289306154
1.289442044
1.289594277
1.289728421
1.289820821
1.289936128
1.290100948
1.290278843
1.290394687
1.290314044
1.290069346
1.289870363
1.293785666
1.274588243
1.289469819
1.289451522
1.289283329
1.28922046
1.289201293
1.289211579
1.289260497
1.289394724
1.289569135
1.289742024
1.289867798
1.289981151
1.290108206
1.2902485
1.290372259
1.290327604
1.29011074
1.289908756
1.293908854
1.274773617
1.289462924
1.289442149
1.289277141
1.289207985
1.289175313
1.289180466
1.28922361
1.289357231
1.289547472
1.289758963
1.289926743
1.290040894
1.290112251
1.290187306
1.29028445
1.290282901
1.290136698
1.28997695
1.293822403
1.275429466
1.289438156
1.289445029
1.289300248
1.289209855
1.289146624
1.289156257
1.289208494
1.289340476
1.289528642
1.289757829
1.289957161
1.290079242
1.290111993
1.290132989
1.29019486
1.290225186
1.290161726
1.290059803
1.293993427
1.275725808
1.289403444
1.289449926
1.289328582
1.289206932
1.289119643
1.289146908
1.289213815
1.289335679
1.289502506
1.289728615
1.289950698
1.290096303
1.290127936
1.290119284
1.290129403
1.290167319
1.290177223
1.290144806
1.293877124
1.276665984
1.289391322
1.289455085
1.289341904
1.289198497
1.289106785
1.28915554
1.289229833
1.289329819
1.289469591
1.289687086
1.289931737
1.290112939
1.29016995
1.290141676
1.290085272
1.290102063
1.290165936
1.290197142
1.29396896
1.277108364
1.28941092
1.289455559
1.289335226
1.289193999
1.289120922
1.289187281
1.289253995
1.289325469
1.289442562
1.289654362
1.289913926
1.290132004
1.290223537
1.290175722
1.290054466
1.2900335
1.290118017
1.290186611
1.293728857
1.278319006
1.289457668
1.289455141
1.289324227
1.289210838
1.289169051
1.289235185
1.289283623
1.289336847
1.289445862
1.289646976
1.289900589
1.290123419
1.290234622
1.290182612
1.290037012
1.289985261
1.290047588
1.290107194
1.293633091
1.278850923
1.289490076
1.289458013
1.289329665
1.289260429
1.289244509
1.289289673
1.289319123
1.289373071
1.28948393
1.28966187
1.28986695
1.290054258
1.290165788
1.290143054
1.290038277
1.28998021
1.289980757
1.289981992
1.293272563
1.280309488
1.289509186
1.289470186
1.289366146
1.289342039
1.289337957
1.28934581
1.289359954
1.289427982
1.289545168
1.289687869
1.289812728
1.28993035
1.290028261
1.29006329
1.290049726
1.290013551
1.28993321
1.289853535
1.293007442
1.280913903
1.289511821
1.289496595
1.289430013
1.289442039
1.289432264
1.289405233
1.289403091
1.289482111
1.289599763
1.289705756
1.289759887
1.289806774
1.28988163
1.289973739
1.290055269
1.290048274
1.289904116
1.289754339
1.292600255
1.282605846
1.289528754
1.289535213
1.289504874
1.289534926
1.28951307
1.289466654
1.289450394
1.28952107
1.289626713
1.28970988
1.289734982
1.289736399
1.289785245
1.2898972
1.290030288
1.290038901
1.289879944
1.289709808
1.292227726
1.283270349
1.28955952
1.289585005
1.289575742
1.289599202
1.289573842
1.289530227
1.289500114
1.289544979
1.289628456
1.28970595
1.289742342
1.289742274
1.289760224
1.28985081
1.289971473
1.28998005
1.289847424
1.28970829
1.291818686
1.285162096
1.289613053
1.28963759
1.289626187
1.28963206
1.289614984
1.28959025
1.289553069
1.289565508
1.289621859
1.289705581
1.289776858
1.289803062
1.289791829
1.289822423
1.289882418
1.289887852
1.289810288
1.289725991
1.291325178
1.285842972
1.289666126
1.289683653
1.289661248
1.289647593
1.289642878
1.289643437
1.289610665
1.289600219
1.28963426
1.289706862
1.289787979
1.289835181
1.289818043
1.289808003
1.289808922
1.289808702
1.289779789
1.2897421
1.290908898
1.287908209
1.289616945
1.289716323
1.28952118
1.289637526
1.28946603
1.289646625
1.289506208
1.289623976
1.289571055
1.289704931
1.289732224
1.289821336
1.289802949
1.289826526
1.289777789
1.289805544
1.289760707
1.289754292
1.29033713
1.300487659
1.271931145
1.295637029
1.268252034
1.290762995
1.267503085
1.288002298
1.269749898
1.287789588
1.274170311
1.289798958
1.279602231
1.2928735
1.284520014
1.295350189
1.28747211
1.296043052
1.287877681
1.294840035
1.286459481
1.270811524
1.289359358
1.289523429
1.289444562
1.289392521
1.289335118
1.289327003
1.28935228
1.289455648
1.289598517
1.28976639
1.289916041
1.290042932
1.290117725
1.290139355
1.290103228
1.290030455
1.28993704
1.289917874
1.295042082
1.270834822
1.289377952
1.289545101
1.289462863
1.289401639
1.289341031
1.289339684
1.289370963
1.289475984
1.28961581
1.289771738
1.289903603
1.290021641
1.290112815
1.290171676
1.290171498
1.290099029
1.289980232
1.289938324
1.295054866
1.270964256
1.289379774
1.289537629
1.289443664
1.289373277
1.289314088
1.289320913
1.289357538
1.289464547
1.289606517
1.289760145
1.289877992
1.289983334
1.290090161
1.290192068
1.290235935
1.290166729
1.290013854
1.289938442
1.295116448
1.271054539
1.289383975
1.289514622
1.289403831
1.289331345
1.289275776
1.289287091
1.289325174
1.28943647
1.289588492
1.289753875
1.289876453
1.289978226
1.29008877
1.290207594
1.29027934
1.290214589
1.290043463
1.289943362
1.295137507
1.271413333
1.289393751
1.289487668
1.289364491
1.289293913
1.289235343
1.28924333
1.289281465
1.289401185
1.289567768
1.289754667
1.289897652
1.290001224
1.290101033
1.290208835
1.290286391
1.290232
1.290064124
1.289955154
1.295266369
1.271664634
1.289399415
1.289468052
1.289340601
1.289268137
1.289195858
1.289197289
1.289243557
1.289376656
1.289550778
1.289753883
1.289916403
1.290027597
1.290111171
1.29019794
1.290265109
1.290225271
1.290080811
1.289978166
1.295292388
1.27231536
1.289403995
1.289458272
1.289331796
1.289251744
1.289159546
1.289159217
1.289224113
1.289370764
1.289540485
1.28974445
1.289918197
1.290043378
1.290116319
1.290182938
1.290238569
1.290212007
1.290099088
1.290009025
1.295405313
1.272744921
1.289399018
1.289456774
1.289331746
1.289238064
1.289132544
1.289141367
1.289226069
1.289375438
1.28953104
1.289722973
1.289902996
1.290048006
1.290122848
1.290174167
1.290210513
1.290191982
1.290110285
1.290041969
1.295366871
1.273729186
1.28939903
1.289458137
1.289335585
1.289229346
1.289125968
1.289153812
1.289243989
1.289378127
1.289513998
1.289696939
1.28988461
1.290049768
1.290136065
1.290172886
1.290179396
1.290153413
1.290099775
1.290060884
1.295351444
1.274353627
1.289403
1.289463436
1.289343901
1.289232166
1.289146157
1.289195731
1.289273611
1.289376327
1.289493484
1.289673899
1.28986951
1.290047303
1.290149529
1.290174781
1.290146728
1.290103052
1.290064334
1.290047039
1.295160123
1.275683068
1.289428451
1.289475161
1.28935906
1.289255858
1.289194781
1.289256834
1.289309889
1.289378694
1.2894838
1.289662278
1.289856644
1.290030762
1.290134463
1.290159971
1.29011099
1.290052746
1.290015383
1.290003223
1.294923824
1.276470418
1.28946165
1.289491472
1.289381203
1.289303592
1.289263742
1.289322411
1.289350242
1.289396448
1.289492933
1.28966265
1.28983971
1.289990641
1.290083453
1.290112653
1.290074408
1.290018963
1.289971858
1.289948126
1.294576263
1.278142958
1.289504688
1.28950835
1.289410826
1.289370737
1.28934568
1.28938443
1.289394036
1.289430723
1.289516965
1.289669188
1.289817949
1.289933143
1.290002628
1.290036334
1.290029816
1.289996667
1.289942595
1.289903107
1.294133223
1.279054473
1.289532143
1.289525835
1.289448624
1.289447157
1.289431063
1.289443917
1.28944135
1.289473394
1.289543851
1.289672895
1.289796316
1.289880579
1.289921795
1.289951715
1.289977142
1.289975038
1.289924391
1.289875595
1.293702522
1.281003921
1.289556796
1.289548035
1.289493879
1.289520432
1.289511658
1.289504265
1.289489419
1.289513939
1.289566782
1.289672289
1.289779308
1.289846174
1.289867311
1.289884288
1.289922544
1.289940564
1.289904094
1.289857585
1.293100904
1.281969363
1.289576902
1.289582634
1.28954858
1.289580512
1.289578612
1.289563096
1.289534862
1.289547658
1.289589017
1.289674297
1.289765585
1.289828533
1.289841596
1.289849044
1.289877945
1.289895078
1.289871704
1.289838237
1.292613286
1.284136376
1.28961651
1.289631325
1.289606909
1.289625925
1.289629082
1.289616302
1.289576148
1.28957831
1.289619158
1.289688316
1.289757496
1.289813903
1.289833984
1.289840402
1.289845851
1.289846268
1.289829748
1.28980532
1.291855193
1.285100064
1.289661584
1.289686733
1.289666901
1.289660121
1.289663129
1.289660998
1.2896203
1.289616775
1.289659692
1.289713793
1.289751952
1.289789013
1.289821285
1.289837669
1.289825074
1.28980824
1.289791934
1.289771265
1.291346794
1.287476838
1.289602193
1.289721755
1.289521863
1.289648343
1.289455034
1.289639519
1.28948221
1.289628402
1.289600796
1.289730061
1.289704258
1.289770348
1.28978564
1.289860664
1.289819692
1.289831051
1.289770069
1.28976404
1.290533294
1.300399617
1.270687695
1.294431276
1.26610626
1.28851507
1.264973825
1.285323376
1.267469642
1.285651208
1.272632465
1.288791545
1.278890414
1.293061622
1.284469124
1.296518592
1.287667516
1.297612307
1.287779123
1.296178335
1.285901322
1.267807245
1.28936332
1.289553365
1.289453796
1.289422762
1.289391503
1.289441841
1.289442579
1.289482763
1.289574038
1.289725109
1.289860153
1.289972147
1.290071379
1.290137753
1.290132881
1.290059465
1.289961613
1.289973833
1.298876791
1.267806709
1.289370221
1.289582743
1.289498175
1.289455485
1.289408481
1.28944786
1.289449011
1.289500183
1.289597973
1.289755182
1.289893225
1.289991373
1.290066405
1.290124013
1.290134772
1.290078835
1.289989839
1.290002005
1.298894593
1.267973431
1.289354775
1.289583537
1.289512821
1.289456335
1.289389334
1.289416888
1.289421482
1.28948997
1.289599081
1.289767879
1.289911039
1.289997836
1.290047424
1.290097135
1.290123927
1.290086656
1.290003911
1.290011105
1.299132745
1.267983868
1.289336006
1.289569451
1.289503646
1.289437329
1.289351645
1.289368538
1.289383497
1.289474049
1.289592678
1.289770661
1.289919385
1.290009386
1.290053258
1.290103741
1.290138324
1.290106688
1.290019194
1.290014625
1.299122698
1.268430028
1.289332557
1.289537488
1.289466355
1.289406504
1.289305402
1.289306241
1.289338182
1.289454515
1.289581097
1.289757113
1.289911096
1.290019868
1.29008117
1.290139843
1.290173973
1.290132229
1.290029998
1.290009858
1.299504865
1.268593827
1.289345336
1.289503791
1.289415206
1.289372129
1.28926105
1.289237621
1.289293046
1.289443827
1.289575759
1.289735594
1.289882723
1.2900209
1.290113252
1.290186484
1.290216375
1.290158026
1.290037112
1.289997355
1.299404767
1.269415786
1.28939044
1.289484751
1.289371659
1.289340622
1.289224382
1.289179442
1.289260761
1.289444364
1.289580492
1.289715985
1.289851901
1.290012651
1.290134179
1.290216356
1.290243276
1.290173399
1.290040181
1.289984973
1.299730726
1.269760372
1.289426217
1.289481877
1.289345699
1.289317713
1.28919959
1.289153909
1.28925207
1.289457005
1.289593015
1.289706522
1.289832889
1.290004057
1.290138723
1.290219854
1.290241373
1.290170948
1.290037321
1.289974673
1.299465833
1.271005479
1.289439285
1.289485002
1.289343211
1.289305552
1.289194232
1.28916995
1.289268013
1.289459671
1.289587282
1.289696581
1.289821074
1.289990954
1.290122522
1.290193775
1.290216724
1.29015182
1.290028228
1.289963603
1.299530179
1.271533885
1.289409866
1.289490577
1.289364871
1.28930974
1.289209475
1.289221948
1.289302116
1.289453451
1.289560381
1.289684223
1.289809315
1.289967094
1.290086319
1.290154281
1.290183045
1.290127816
1.29001304
1.28994769
1.29901057
1.273235654
1.289405395
1.289502834
1.289404488
1.289336705
1.289245694
1.289290118
1.289345684
1.289443633
1.28952991
1.28966762
1.289805155
1.289943729
1.290040072
1.290104494
1.290138973
1.290095743
1.289993915
1.289929598
1.298700644
1.273951842
1.289427567
1.289521172
1.289446275
1.289381999
1.289298228
1.289352287
1.289391405
1.289448355
1.289508354
1.28965445
1.289812516
1.289937608
1.289998293
1.290046255
1.290077285
1.290053372
1.289976513
1.289925954
1.297969129
1.276143972
1.289497479
1.28954065
1.289474008
1.289436293
1.289362279
1.289404536
1.289438771
1.289473504
1.289505112
1.289641614
1.289822704
1.289943499
1.289968481
1.289980417
1.289997207
1.289995537
1.289960568
1.289938345
1.297307963
1.277004937
1.289554794
1.289556209
1.289486104
1.289486199
1.289433408
1.289457378
1.289486772
1.289513504
1.28951757
1.289632895
1.289821843
1.289946557
1.289950679
1.289920282
1.289909449
1.289928878
1.289943733
1.289959945
1.296444525
1.279556562
1.289593544
1.289571848
1.289496548
1.289528238
1.289507069
1.289520156
1.289533265
1.289549158
1.289540102
1.289632702
1.289802336
1.289927737
1.289933972
1.289879013
1.289841873
1.289865762
1.289915232
1.289961953
1.295500116
1.280449032
1.289593224
1.289597384
1.289534993
1.289567093
1.289573817
1.289589806
1.289577189
1.289572631
1.289571566
1.289649347
1.289770144
1.289875589
1.289903696
1.289862598
1.289813699
1.289822641
1.289873321
1.289931447
1.29456109
1.283258305
1.289604783
1.289639545
1.289607556
1.289608888
1.289625288
1.289655754
1.289614544
1.289588291
1.289613213
1.289685097
1.289739804
1.289799373
1.289855848
1.289864712
1.289826384
1.289802582
1.289823462
1.289864103
1.293382176
1.284130074
1.289628368
1.289694752
1.289693885
1.289657062
1.289662636
1.289704144
1.289649574
1.28961353
1.289662903
1.289733952
1.289732868
1.289737374
1.289806973
1.289862913
1.289849379
1.28979776
1.289780433
1.289797077
1.292424294
1.287209875
1.289528912
1.289728765
1.289504498
1.28966095
1.289399695
1.28967185
1.289471178
1.28962232
1.289611395
1.289764721
1.28971355
1.289733667
1.289774541
1.289880976
1.289879319
1.289842412
1.289781412
1.289778155
1.291182619
1.30266055
1.26690599
1.295676241
1.261598706
1.288739646
1.260815116
1.285048409
1.26479296
1.285580354
1.271988134
1.289374073
1.280327812
1.294303106
1.287564119
1.298033396
1.291587597
1.298587252
1.291250319
1.295825254
1.288225974
1.257863972
1.289249695
1.289614528
1.289529156
1.289541494
1.289473369
1.289578522
1.28959793
1.28959103
1.289564948
1.289663881
1.289799308
1.289907072
1.289990441
1.290075836
1.290120347
1.290056196
1.289934878
1.289981161
1.304231802
1.257829017
1.289268165
1.289645041
1.289577288
1.289574335
1.289497834
1.289566497
1.289575641
1.289603698
1.28961005
1.289720296
1.289858791
1.289963423
1.290012013
1.290052633
1.290074895
1.290033518
1.289954093
1.290029901
1.304427127
1.257849111
1.289258758
1.289653985
1.289599992
1.289576566
1.289488032
1.289517932
1.289517541
1.289587117
1.289637759
1.289764261
1.289903349
1.290006839
1.290026079
1.29001873
1.290008386
1.289993414
1.28996476
1.29006899
1.304792548
1.257817015
1.289237404
1.289652827
1.289602117
1.289564832
1.289464829
1.289455596
1.289463331
1.289572426
1.289656459
1.289784586
1.289910644
1.290025555
1.290052684
1.290030712
1.289997777
1.289990755
1.289987897
1.290099743
1.305215624
1.258037658
1.289214779
1.289619909
1.289558134
1.289540228
1.289439292
1.289388444
1.289408495
1.289564713
1.289666666
1.289776186
1.289878678
1.290018726
1.290091697
1.290093037
1.290048865
1.290026484
1.290012035
1.290106242
1.305718973
1.258257374
1.28920939
1.289567952
1.289482112
1.289508627
1.289418787
1.289320599
1.28934348
1.289554034
1.289675845
1.289747606
1.289825216
1.289991313
1.290131555
1.290172498
1.290127953
1.290075937
1.290025056
1.290080788
1.306111203
1.258980583
1.289254617
1.289538275
1.289413949
1.289480086
1.289405995
1.289266078
1.289278887
1.28954275
1.289694609
1.289732276
1.289775489
1.289965705
1.290160994
1.290232965
1.290185801
1.29010757
1.290019195
1.290039485
1.306385852
1.259609131
1.289318666
1.289539275
1.289380205
1.289454276
1.289393713
1.289245411
1.289248192
1.28953207
1.289739528
1.289749594
1.289760954
1.289948193
1.290166131
1.290248081
1.290198597
1.290109985
1.290003469
1.28999447
1.306469546
1.261005678
1.289354343
1.289547875
1.289380237
1.289434075
1.289378621
1.289258521
1.289255634
1.289520834
1.289731297
1.289757923
1.28976717
1.289938828
1.290137327
1.29021302
1.290176249
1.290100297
1.2899936
1.289964252
1.306214555
1.262121413
1.28933409
1.289554874
1.289408854
1.289429034
1.289364776
1.289294516
1.289296007
1.289509347
1.289664449
1.289742583
1.289764123
1.289913704
1.290074307
1.290143293
1.290139987
1.290094713
1.289997247
1.289949812
1.305776003
1.264275086
1.289329059
1.289552391
1.28945268
1.289453545
1.28936677
1.289329335
1.289350221
1.289512584
1.289614046
1.28971098
1.289765113
1.289896144
1.290006204
1.290065837
1.290094289
1.290085432
1.290004015
1.289947543
1.304847172
1.26582124
1.289352101
1.289545418
1.289495044
1.289506522
1.289392439
1.289351836
1.289396529
1.289535617
1.289593924
1.289678835
1.289783344
1.28990929
1.289971543
1.289999474
1.290033036
1.290053995
1.290002189
1.289952765
1.303901484
1.268748468
1.289442182
1.289549513
1.289516979
1.289566056
1.289438791
1.28936562
1.289427347
1.289576589
1.28960773
1.289657205
1.289789399
1.289938313
1.289973436
1.28995669
1.289963963
1.289994754
1.289983188
1.289963342
1.30239453
1.270597119
1.289526862
1.289571139
1.289517807
1.289599064
1.289497162
1.289411547
1.28946885
1.289627985
1.289635864
1.289638692
1.289770337
1.289953947
1.289992178
1.289932808
1.289892303
1.289918834
1.289950406
1.289970228
1.301123383
1.274059869
1.289590982
1.289606263
1.289523483
1.289601261
1.289555012
1.289496973
1.28953543
1.289664138
1.289651698
1.289633243
1.289740842
1.289926807
1.289983762
1.289918946
1.28984754
1.289850078
1.289903732
1.28995872
1.299211649
1.275951344
1.289593248
1.289644418
1.289570129
1.28959105
1.289586139
1.289603914
1.289621622
1.289667091
1.289642604
1.289654369
1.289730277
1.289855819
1.289921205
1.289896188
1.289839979
1.289816693
1.2898529
1.289919835
1.297844618
1.279804984
1.289596043
1.289680578
1.289659654
1.28960035
1.289592516
1.289707135
1.289701809
1.289639881
1.28961827
1.289697468
1.289751794
1.289778651
1.289820828
1.289867707
1.289864225
1.289819231
1.28980493
1.289860242
1.295657347
1.281603517
1.289608574
1.289719248
1.289750601
1.289636629
1.28959595
1.289761138
1.28975535
1.28962286
1.28959936
1.289748333
1.289808416
1.289742619
1.289736372
1.289828984
1.289883639
1.289829777
1.289772856
1.289802807
1.294309798
1.285793312
1.289456033
1.289710542
1.28943375
1.28959362
1.289188564
1.289638509
1.2894616
1.289572667
1.289474608
1.289767527
1.289818081
1.289783517
1.289721413
1.289852768
1.289914304
1.28988757
1.289793149
1.289799765
1.2920527
1.30251253
1.262555057
1.291810808
1.25428518
1.28119739
1.252324345
1.275883271
1.257314737
1.278262016
1.267150266
1.286115194
1.278602512
1.295416871
1.288315635
1.302656486
1.293249651
1.304668898
1.29167848
1.300753618
1.286535053
1.250020273
1.289166724
1.289702678
1.28964896
1.28980076
1.289675922
1.289660789
1.289738139
1.289826714
1.289668326
1.289645045
1.289744521
1.289836856
1.289884453
1.289969263
1.290043916
1.290022781
1.289895753
1.289980512
1.314441248
1.249886418
1.289200373
1.289715605
1.28966761
1.289779362
1.289680618
1.289643044
1.289680754
1.289808886
1.289730962
1.289719784
1.289817218
1.289932529
1.289972115
1.289981438
1.289986866
1.289967296
1.289899914
1.290042786
1.314709536
1.249867833
1.289214749
1.289727601
1.289675537
1.289726713
1.28965111
1.289610733
1.289594488
1.289746258
1.289759198
1.289774162
1.289868423
1.290013152
1.290058927
1.289983402
1.289907448
1.289892912
1.289902787
1.290101379
1.315606697
1.249523035
1.289204402
1.28975259
1.289691068
1.289684496
1.289619453
1.289577516
1.289523806
1.289675476
1.28977399
1.289798293
1.28984318
1.290035373
1.290120436
1.290020655
1.289889482
1.289870456
1.289932634
1.290153566
1.316176048
1.24974615
1.289171392
1.28975092
1.289667897
1.289639278
1.289600803
1.289552045
1.289471569
1.289608347
1.289791331
1.289825587
1.289791659
1.289988495
1.290134714
1.290082009
1.289945439
1.289912913
1.289974456
1.290171407
1.317462056
1.249623788
1.289111548
1.289708846
1.289600415
1.289590401
1.289598651
1.289528965
1.289424173
1.289552686
1.289806981
1.289891245
1.289797388
1.289907177
1.290102959
1.290140304
1.290041547
1.289989551
1.290006217
1.290149766
1.317830606
1.25051766
1.289103343
1.289665282
1.28953313
1.289556162
1.289613083
1.289515197
1.289362622
1.289503966
1.289814516
1.290151282
1.289828451
1.289862462
1.290076014
1.290182148
1.29011971
1.290044665
1.290012465
1.290098105
1.318753679
1.250918354
1.289124984
1.289652041
1.289504328
1.289528768
1.289621211
1.289511054
1.289310338
1.289486794
1.289786301
1.290444231
1.289888014
1.289875279
1.290072238
1.290206384
1.290156889
1.290061393
1.289998193
1.290039552
1.318485495
1.252835495
1.289191068
1.289659842
1.289507216
1.289501314
1.289592744
1.289497032
1.289290581
1.28944862
1.289769462
1.289986322
1.289907485
1.289895183
1.290061237
1.290192631
1.290147345
1.290054464
1.28998902
1.289999834
1.318409303
1.253904355
1.289237555
1.289665533
1.289524621
1.289488671
1.289538137
1.289465542
1.28930948
1.289451173
1.289768472
1.289955412
1.289876563
1.289868128
1.290012633
1.290131667
1.290111569
1.290052881
1.289997995
1.289990981
1.317252555
1.256940403
1.289301809
1.289642912
1.289532495
1.289518484
1.289502219
1.289424421
1.289342047
1.289483934
1.289726598
1.289886788
1.289823297
1.289833565
1.289972669
1.290066951
1.290066988
1.29004872
1.290011547
1.289992292
1.315924356
1.258533544
1.289319395
1.28959823
1.289525115
1.289590304
1.289523361
1.289394831
1.289346933
1.289531514
1.289702204
1.289810784
1.289754072
1.289839909
1.289973792
1.290034263
1.290025059
1.290026559
1.290005897
1.289988171
1.313938904
1.262693989
1.289384737
1.289576483
1.2895195
1.289690208
1.289595602
1.289373456
1.289341498
1.289590545
1.289778495
1.28976471
1.289695261
1.289860202
1.290007013
1.290023257
1.289983786
1.289978718
1.289973614
1.289970718
1.31147526
1.264618318
1.289443068
1.28959938
1.289534372
1.289723651
1.28965709
1.289424314
1.289378482
1.289672151
1.289845311
1.28975847
1.289678587
1.289860876
1.290015519
1.290005394
1.289939181
1.289918094
1.289924336
1.289936596
1.30900472
1.269639438
1.289552882
1.289665768
1.289583469
1.289673229
1.289668124
1.28953275
1.289470817
1.289711757
1.289848373
1.289755699
1.289698221
1.289843353
1.289976264
1.289968325
1.289902888
1.289870523
1.289874143
1.289895943
1.305788996
1.271652456
1.289605438
1.289714786
1.289658754
1.28962116
1.289631327
1.289629961
1.289626432
1.289738585
1.289775979
1.289735499
1.289738685
1.289819886
1.289887531
1.289906925
1.289883345
1.289854554
1.289835735
1.289855846
1.303262814
1.27723024
1.289659433
1.289717303
1.289731813
1.289645472
1.289585926
1.289672359
1.289793435
1.28977674
1.289669838
1.289690823
1.289796499
1.289816454
1.289794006
1.289829643
1.289879406
1.289867864
1.289814444
1.289822013
1.299714977
1.279056255
1.289672028
1.289680759
1.289758484
1.28970788
1.289549238
1.289673077
1.289883572
1.289813495
1.289587004
1.289646055
1.289834864
1.28983048
1.289733433
1.289771761
1.28987709
1.289879944
1.28980191
1.289796807
1.297335675
1.28497643
1.289362145
1.28961653
1.289147466
1.289665405
1.288915652
1.289508743
1.289465776
1.28977119
1.28942457
1.289619025
1.2898187
1.289885543
1.28979594
1.289839481
1.289946865
1.289936549
1.289851736
1.289815637
1.293728318
1.306999035
1.25387964
1.293644031
1.243407595
1.280302848
1.242029576
1.273691904
1.250751021
1.276866825
1.265476436
1.286691728
1.281980308
1.298312843
1.29603281
1.306974643
1.30339497
1.307884292
1.300566665
1.300393859
1.292237285
1.231531492
1.288720998
1.289850519
1.289787169
1.290083093
1.290098644
1.289685778
1.28961713
1.290012117
1.290073271
1.289791598
1.289619812
1.289768336
1.289934857
1.289939968
1.289866655
1.289867492
1.289837727
1.290023794
1.329305913
1.231206252
1.288736046
1.289799707
1.289750927
1.289979789
1.289976574
1.289733379
1.289631614
1.289907488
1.290010157
1.289882178
1.289731166
1.289838395
1.289986681
1.289995054
1.2898908
1.28985319
1.28984283
1.290076657
1.330120103
1.230645327
1.288738806
1.289777438
1.289749601
1.289843192
1.289806331
1.289806745
1.289689269
1.289760497
1.289864704
1.289952509
1.28986753
1.289911683
1.290014451
1.290019075
1.28989367
1.289828487
1.289844803
1.290104954
1.331721542
1.229888634
1.288735173
1.289836026
1.289804177
1.289758738
1.28969252
1.289874209
1.289776688
1.289644238
1.289682673
1.289937219
1.290011244
1.289973466
1.290009522
1.290012886
1.289907961
1.289832281
1.289866331
1.290122463
1.333714242
1.229289035
1.288698244
1.289908552
1.289853957
1.289666892
1.289609268
1.289972957
1.289865735
1.289541134
1.289512399
1.289886629
1.290095593
1.290009396
1.289965549
1.289997322
1.289957326
1.289882242
1.28990474
1.290114759
1.335998
1.228898713
1.288619548
1.289934008
1.289852806
1.289548724
1.289526141
1.290072834
1.289922019
1.28939846
1.289436208
1.290591773
1.290188207
1.290029791
1.289887159
1.289975198
1.290036185
1.289964264
1.289945431
1.29007673
1.337955901
1.229256889
1.288526055
1.289880164
1.289803156
1.289442135
1.289474881
1.290156114
1.289955369
1.289248623
1.289712422
1.307605862
1.290471003
1.290056414
1.289805533
1.289956472
1.290116235
1.290041536
1.289973638
1.2900226
1.339415323
1.229909546
1.288482103
1.28979357
1.289755744
1.289366658
1.289447065
1.290168099
1.290008854
1.289190081
1.289895203
1.333071183
1.291297222
1.290088646
1.289757223
1.289951785
1.290181634
1.290096415
1.289984957
1.289964048
1.340053388
1.231994376
1.288594578
1.289767626
1.289736623
1.289339135
1.289417811
1.29008573
1.289989119
1.289241295
1.289237617
1.292556707
1.290488833
1.290083561
1.289751303
1.289967062
1.290221524
1.290124226
1.28999017
1.289925421
1.339503338
1.23408091
1.288778802
1.289800671
1.289725775
1.289370779
1.289400305
1.289925666
1.289875017
1.289355893
1.289370717
1.290037868
1.29031309
1.290051809
1.289761677
1.28998317
1.290228079
1.290124032
1.289991546
1.289910098
1.338110887
1.238130393
1.288952625
1.289810258
1.289678732
1.289432858
1.289426607
1.289776982
1.289759669
1.289454425
1.289455491
1.289920151
1.290156878
1.290007517
1.289811179
1.290020643
1.290200302
1.290094599
1.289981288
1.289913999
1.335208863
1.2413185
1.288998683
1.289763912
1.289610473
1.289510454
1.289516055
1.28971983
1.289653836
1.289470008
1.289506737
1.289910693
1.290073386
1.289944357
1.289878734
1.290068539
1.290154777
1.290043228
1.289953832
1.28990946
1.331896153
1.2471788
1.289042568
1.289710409
1.289574447
1.289621324
1.289641469
1.289744816
1.289536349
1.289395188
1.289635336
1.290019193
1.2900084
1.289824188
1.289883961
1.290100841
1.290115108
1.289985155
1.289911056
1.289905514
1.326987845
1.251103204
1.289102018
1.289705995
1.289616067
1.289666881
1.289699254
1.289781954
1.289419934
1.289305111
1.28980732
1.290165998
1.289909053
1.289642678
1.28984151
1.290125373
1.290080854
1.289931918
1.289867533
1.289877444
1.322545913
1.258322772
1.289335807
1.289776263
1.28972991
1.289617725
1.289700785
1.289803983
1.28936862
1.289303477
1.289943519
1.290222299
1.289831745
1.289575129
1.289821359
1.290083707
1.290020322
1.28989069
1.289841805
1.289847552
1.316549261
1.26241859
1.289553984
1.289811233
1.289808132
1.289633597
1.289716032
1.289705499
1.28945968
1.28955411
1.290016917
1.29006083
1.289741705
1.289666411
1.289858422
1.28998125
1.289926126
1.289866272
1.289840889
1.289817836
1.312236857
1.27041413
1.289757916
1.289719777
1.289762267
1.289816043
1.289767903
1.289505309
1.289697344
1.29000024
1.289970884
1.289717555
1.289669471
1.289877315
1.289925082
1.289841499
1.289810436
1.289862948
1.289863089
1.289812307
1.305983721
1.273972928
1.28979982
1.28951956
1.2895657
1.289993687
1.289773262
1.289322389
1.289838292
1.290350306
1.289835938
1.289336728
1.289600369
1.29006712
1.289978178
1.289720267
1.289712148
1.289855905
1.289881544
1.289812313
1.302255729
1.282236812
1.289256613
1.289336261
1.288335487
1.289759432
1.288567852
1.288860346
1.289064981
1.290131117
1.289418264
1.289155932
1.289558254
1.290172523
1.290106712
1.289830622
1.289822384
1.289888451
1.289939002
1.289819331
1.296048665
1.307235159
1.244717931
1.286684843
1.228228521
1.265523259
1.224554912
1.254856682
1.236372433
1.262421814
1.257255084
1.28076061
1.280510555
1.301607367
1.300196719
1.318313247
1.309888142
1.322537737
1.303501942
1.311529492
1.289580302
1.215063214
1.288121393
1.29009416
1.290032862
1.289981716
1.290408804
1.290096549
1.289561308
1.289844605
1.290204434
1.290036085
1.28978738
1.289832933
1.289958602
1.28986039
1.2897052
1.289710057
1.289782886
1.290010188
1.350722927
1.214124403
1.288062198
1.289936457
1.289921279
1.289990407
1.290154582
1.29012462
1.289697715
1.28973612
1.290096647
1.290080877
1.289799348
1.289828421
1.289978452
1.289982017
1.289852042
1.289789462
1.289806938
1.290028186
1.35209074
1.213032442
1.288004687
1.289820378
1.2898723
1.289992188
1.289843645
1.290032874
1.289923589
1.289697875
1.289893453
1.290075835
1.289817004