/*--------------------------------*- C++ -*----------------------------------*\
| =========                 |                                                 |
| \\      /  F ield         | OpenFOAM: The Open Source CFD Toolbox           |
|  \\    /   O peration     | Version:  5.x                                   |
|   \\  /    A nd           | Web:      www.OpenFOAM.org                      |
|    \\/     M anipulation  |                                                 |
\*---------------------------------------------------------------------------*/
FoamFile
{
    version     2.0;
    format      ascii;
    class       surfaceScalarField;
    location    "10";
    object      phi;
}
// * * * * * * * * * * * * * * * * * * * * * * * * * * * * * * * * * * * * * //

dimensions      [1 0 -1 0 0 0 0];

internalField   nonuniform List<scalar> 
91025
(
1.058815137
-0.05320233678
-0.1442921168
0.964959291
-0.1353059591
-0.02145057961
0.8879281263
0.06914203349
-0.1389901802
0.6897361862
0.0751412937
0.01340573675
0.5068664303
0.1956832273
-0.1696598862
0.2689827283
0.1031494114
-0.07593212645
0.1487915551
0.1785289397
-0.1446421426
0.1064831989
0.08932351039
-0.0318737735
0.0601780861
0.02774163786
-0.1147544214
-0.1266242576
-0.07315720951
-0.1190475884
-0.3489066481
-0.08075534202
-0.2036524724
-0.5665689475
-0.06955352229
-0.1778326425
-0.6877997638
-0.1194732725
-0.2187296701
-0.7230959549
-0.1925106029
-0.2221261525
-0.6629778448
-0.1557185328
-0.1474142521
-0.4739392727
-0.1165437752
-0.1224060861
-0.4397570814
-0.06772907568
-0.09043184728
-0.4520244162
-0.06537025612
-0.1569642585
-0.5476140017
0.0402090759
-0.06542706458
0.030996024
-0.04934430008
1.055561551
-0.03857047579
-0.1131530471
0.9967903658
-0.1877249619
0.03910787985
0.9476419884
0.1239742334
-0.1346231669
0.7215933351
0.06786756999
-0.005695056048
0.5095478516
0.2690295057
-0.1827239958
0.260403096
0.1138135473
-0.07899236639
0.1239518448
0.2873925345
-0.1406783919
0.06551195812
0.1773032548
-0.02632713248
0.02851192439
0.1260236221
-0.09793178361
-0.1296116311
-0.07715407317
-0.1170742615
-0.3385276718
-0.1642475941
-0.2242909273
-0.5912342936
-0.1890171753
-0.193266962
-0.7308823811
-0.2570145574
-0.2081123632
-0.7365391141
-0.3383679116
-0.194658727
-0.6410536597
-0.222949481
-0.1341055974
-0.4461013753
-0.1675170568
-0.1336939149
-0.4078393522
-0.1214366473
-0.1087261627
-0.4245360134
-0.219146677
-0.181969009
-0.5592611755
-0.09618968259
-0.09802943913
-0.05903907396
-0.07142331683
1.031380802
0.08944732696
-0.07654469965
1.028291111
-0.1316191631
0.1197566593
0.9962415833
0.2069422062
-0.1240432839
0.7437225518
0.004979882343
-0.02185888072
0.5035192566
0.274011337
-0.1936301142
0.2593059786
0.06621396118
-0.07317726371
0.1023305256
0.3351958585
-0.1482013347
0.005701948841
0.2164196983
-0.03379549228
-0.04214767869
0.257387837
-0.1244703293
-0.1799086698
-0.05738114983
-0.1248794789
-0.3518465061
-0.2415325651
-0.2882776039
-0.6135734545
-0.3483616658
-0.204865784
-0.7561722035
-0.377608659
-0.2137591849
-0.7072725072
-0.4218004504
-0.1597755671
-0.5845733946
-0.2130036656
-0.1366862009
-0.4131751146
-0.179267756
-0.1577272275
-0.3992152629
-0.1547031034
-0.1354799471
-0.3872710363
-0.3925676588
-0.1882734011
-0.5066524105
-0.315601246
-0.1036234205
-0.2324897621
-0.08182804059
1.059832157
0.2804402121
-0.05687272231
1.075724353
0.003383989955
0.1630513943
1.042769263
0.3168125617
-0.1085466268
0.7820317966
-0.0585901708
-0.01972500279
0.5337670578
0.2855826981
-0.1785751488
0.2997825496
0.02809291396
-0.05357361541
0.1295741879
0.3410225088
-0.1448845083
-0.02699424744
0.1688272463
-0.06772631433
-0.1405212219
0.3022094009
-0.1562435474
-0.2842518637
-0.09029444226
-0.1498400193
-0.4194493244
-0.3173921127
-0.3106267685
-0.649731932
-0.4821638567
-0.2145346024
-0.7651787722
-0.4258401154
-0.1974282932
-0.6699636117
-0.4375201494
-0.1377207214
-0.5551173354
-0.204514637
-0.1460430624
-0.4524926564
-0.2300670881
-0.1979813067
-0.476008527
-0.183354639
-0.1524262842
-0.4111206563
-0.4871777399
-0.1595840223
-0.4306037161
-0.4212228293
-0.05918640138
-0.3456556121
-0.06091059875
1.077812562
0.444912681
-0.0698805093
1.049356561
0.08516256305
0.1308106073
1.002156682
0.4249610798
-0.1197650167
0.7670550847
-0.09978207742
-0.009090344207
0.5398143509
0.3512593866
-0.1685440536
0.3110972555
0.00799498223
-0.02913821854
0.1335798579
0.3610950962
-0.1757560967
-0.07114165966
0.02109094377
-0.1220644936
-0.2585144165
0.2389185393
-0.2602041401
-0.4322842783
-0.2039863857
-0.1610601723
-0.4752534768
-0.3138522055
-0.3823621033
-0.6458095833
-0.5135119275
-0.1987501237
-0.7053172549
-0.3154382491
-0.2364583701
-0.586692509
-0.3841192415
-0.1324982594
-0.5032370036
-0.2054181439
-0.1783367903
-0.473135073
-0.3726114811
-0.2321105079
-0.5375322413
-0.2092774932
-0.1666354985
-0.4093099939
-0.4074331112
-0.1162263845
-0.2918486839
-0.2485710019
0.005611954609
-0.2832894191
-0.02223624106
1.192690331
0.4749178133
-0.1090459549
1.058968624
-0.00471338322
0.03264093228
0.9876437812
0.4472977146
-0.1353157432
0.7881703815
-0.139364558
0.01098673348
0.5893020975
0.4154974009
-0.1357817211
0.3345057599
-0.01794626641
-0.008782693381
0.1373816843
0.3840488167
-0.1766451134
-0.09781215767
-0.1701757261
-0.1735622974
-0.3555952707
0.08665687315
-0.3009496241
-0.5452212011
-0.350613369
-0.1699299603
-0.5419816383
-0.2308985029
-0.3488458116
-0.6438419065
-0.4114706458
-0.1843416871
-0.6875703874
-0.09738596053
-0.248334392
-0.5905946466
-0.272640478
-0.158057948
-0.5264324281
-0.1799256145
-0.183248665
-0.5133060645
-0.508248473
-0.2390991384
-0.5819516491
-0.2146932425
-0.1675708339
-0.4322958118
-0.224167052
-0.09544954941
-0.2267432617
0.1128901818
0.04601348239
-0.08056778628
0.005285252265
1.238849202
0.3791940678
-0.1576236899
1.014000577
-0.3033606748
-0.05578948666
0.917458711
0.3711956367
-0.1507750144
0.7637066239
-0.2316725781
0.03484946515
0.572478219
0.4362857657
-0.1269432566
0.2873675577
-0.1181685852
-0.004789768765
0.05593375797
0.4135123267
-0.2017816302
-0.1738877141
-0.3447929611
-0.1829782791
-0.4140648737
0.004301874515
-0.3712862944
-0.5969759083
-0.457612301
-0.1519680657
-0.5190218623
0.003459945999
-0.442704394
-0.5898608445
-0.2892840489
-0.1683775023
-0.643178861
0.150050434
-0.3403555621
-0.6061237479
-0.1713283104
-0.1909353232
-0.5418814895
-0.05202530625
-0.1944602439
-0.4451270917
-0.525093306
-0.2054097339
-0.4561654068
-0.1509023745
-0.1604910397
-0.3304966794
-0.09739941135
-0.116849282
-0.1900753651
0.3979013106
0.01653671572
0.08415569887
-0.003716657501
1.299189824
0.2422597546
-0.1595189703
1.08561577
-0.655164957
-0.06426927827
0.9763572171
0.2411950966
-0.1235816543
0.8230747689
-0.3717182728
0.05949665462
0.618253092
0.3701344967
-0.1064530832
0.2792491306
-0.3106513046
-0.02422762308
-0.007320330648
0.3731730947
-0.1810274235
-0.2404002021
-0.4461940433
-0.1660912313
-0.4231518162
0.01033719145
-0.3181790839
-0.5546836271
-0.4552110075
-0.1654141416
-0.5023914377
0.2674449136
-0.4277874194
-0.5735951398
-0.2254348972
-0.1987133887
-0.6862441225
0.2386518853
-0.3642449701
-0.7228478628
-0.1598393674
-0.238257798
-0.6491341097
0.1586149153
-0.1721779239
-0.4258766049
-0.3252552439
-0.1549779805
-0.3342875464
-0.01688804368
-0.139635262
-0.2561039135
-0.1329157766
-0.1657561946
-0.2769268017
0.3691398673
-0.06573881647
0.06127808421
-0.04396103981
1.178223313
0.197902475
-0.1226416606
1.076908671
-0.8863835301
0.01597913251
0.9918827325
0.1679970236
-0.09113890081
0.8100335614
-0.5195459405
0.06277887022
0.585915487
0.2853351352
-0.1270954175
0.2414380439
-0.5794557164
-0.05840569401
-0.1020866781
0.2603526146
-0.2036673855
-0.310843421
-0.5536904596
-0.1125833592
-0.3831306037
0.1100372868
-0.2775997103
-0.4772764014
-0.4382572595
-0.1236514494
-0.4483879933
0.4326334831
-0.4456077383
-0.5587433891
-0.2951692349
-0.1999646367
-0.6616311888
0.1860688813
-0.3982455313
-0.7288798409
-0.2764506798
-0.2571209417
-0.6682590472
0.379744229
-0.1922503931
-0.3774388166
-0.02313257398
-0.1285425822
-0.2078431231
0.1785763101
-0.1279394296
-0.1298013965
-0.289214863
-0.1957382551
-0.2676362783
0.0967042813
-0.1323406557
-0.1453485985
-0.08797048579
1.117617879
0.3022536578
-0.05660805916
1.181745905
-0.8641039539
0.1284655883
1.130938337
0.2092719488
-0.04627667464
0.8684703551
-0.6243773007
0.0475595439
0.6059362723
0.1991041814
-0.1332548004
0.2755288289
-0.8231383917
-0.08101799904
-0.09283073859
0.04980138616
-0.1866156793
-0.3020499522
-0.7042028493
-0.0792264876
-0.3318908813
0.1870107994
-0.16564935
-0.4125002645
-0.4585163009
-0.1428044072
-0.4825761224
0.434203668
-0.3733431986
-0.6185458733
-0.4078640996
-0.2227361733
-0.6857187203
0.09817482183
-0.3163182683
-0.6939786374
-0.3927074014
-0.2529374603
-0.688804861
0.4860069863
-0.2202587429
-0.4923979999
0.1942387282
-0.1640132077
-0.3076808324
0.3433369092
-0.1237495103
-0.1682403923
-0.3857494864
-0.1743776563
-0.2834166657
-0.1609484271
-0.1335973484
-0.3549247963
-0.09013782508
0.9624827314
0.4942213164
-0.01834103447
1.144058248
-0.6701280789
0.192678999
1.10724649
0.298950518
-0.05064203505
0.7970854996
-0.7573973097
0.01040083548
0.5129308048
0.126396513
-0.1462042095
0.2318872153
-1.018113889
-0.07851430431
-0.07448717393
-0.1647366302
-0.2040152342
-0.2603358517
-0.9292410607
-0.06216948013
-0.2799778179
0.1866198453
-0.1465529932
-0.3793202994
-0.5983820834
-0.148463301
-0.4871207117
0.3289920162
-0.4100632712
-0.6409571137
-0.5119009377
-0.2029271484
-0.5974362509
0.1471820896
-0.2479441508
-0.5120540798
-0.4320031448
-0.2113829013
-0.5661796758
0.4136870549
-0.2798869603
-0.5578804237
0.1074258864
-0.244755611
-0.4356400974
0.3988646743
-0.1454574306
-0.1952787419
-0.3151723371
-0.1189420899
-0.1580605686
-0.1372792533
-0.0689710332
-0.3969559993
-0.05916228631
0.9988495809
0.6607553759
-0.01630681171
1.184527209
-0.4853648777
0.1825401838
1.136863732
0.3158280848
-0.05800589299
0.8001205059
-0.9703220791
-0.01375782878
0.4858689637
-0.006346030265
-0.1145101717
0.2296719718
-1.162350016
-0.03931546563
0.01130257542
-0.310325874
-0.1529188189
-0.1389640266
-1.159958467
-0.05681872913
-0.2312500948
0.04504761478
-0.0984924246
-0.3638448404
-0.84211713
-0.1641480799
-0.5369510559
0.1165876439
-0.3403293283
-0.6900806671
-0.5987478874
-0.1978141185
-0.5880731798
0.3006067473
-0.1506684763
-0.4405559566
-0.3725308493
-0.163824882
-0.535104399
0.1903853886
-0.2812463081
-0.6767817852
-0.2497107791
-0.3021370975
-0.6379958109
0.3182523432
-0.1602607642
-0.3433560227
-0.1043981323
-0.07479986769
-0.1414897985
0.1728081559
-0.005530226844
-0.2457916629
-0.01967702057
0.9198598627
0.7165868339
-0.0420753772
1.005793761
-0.5177333877
0.1016441097
0.9466573705
0.22839902
-0.07696874714
0.6849591828
-1.255771961
-0.03373341543
0.3710036316
-0.1798109945
-0.1116744394
0.1522594089
-1.328018619
-0.02263227319
0.04402281365
-0.340207841
-0.1324550179
-0.05986596055
-1.339208298
-0.07055689016
-0.176607815
-0.1737108234
-0.1323932156
-0.3315200271
-1.109278952
-0.1521913355
-0.4621773027
-0.1362282038
-0.3200529512
-0.5939219187
-0.7391445461
-0.2049001845
-0.5237521254
0.4065118119
-0.159035
-0.4032803332
-0.3336932422
-0.1339315681
-0.4548750768
-0.02703875151
-0.2502469737
-0.5811702665
-0.6420156487
-0.2895064829
-0.5881114921
0.1823665565
-0.1701684238
-0.3171787619
0.06170934495
-0.07596356484
-0.1037284292
0.5149397916
0.009070262036
-0.07924676554
-0.009395018422
0.995096325
0.6511402195
-0.06562575148
0.9210562462
-0.7412933785
0.03068387579
0.8574518817
0.07771381008
-0.06927780543
0.6858251746
-1.490664034
-0.01074324233
0.4088084837
-0.387334541
-0.09541748825
0.1672803435
-1.553237825
-0.01768255488
0.08994169718
-0.3912346416
-0.07545012387
0.001713622102
-1.480700834
-0.05801743677
-0.1419788894
-0.3954203177
-0.1046228356
-0.2903127236
-1.335229107
-0.1064063718
-0.3815636519
-0.3727526987
-0.2084845724
-0.4866149416
-0.9861690883
-0.2216074991
-0.5709745894
0.2525217787
-0.197138722
-0.5802603941
-0.4427892218
-0.1393586255
-0.5476394366
-0.1191931704
-0.1456615346
-0.4967751692
-0.7999347059
-0.1896257896
-0.4675755101
0.06118157369
-0.1477655764
-0.3389977914
0.01808057257
-0.119156423
-0.2545614619
0.5605776053
-0.04255301579
-0.04359629068
-0.02918256088
0.8256046588
0.5401288774
-0.0722092573
0.6653310765
-1.054219018
-0.01527637234
0.6198722941
-0.01675258142
-0.06189154112
0.5518003398
-1.579768465
-0.006408463645
0.3598128978
-0.5656113603
-0.1314828595
0.1436571198
-1.855611353
-0.0661912959
0.05476034217
-0.5567311701
-0.08280589516
-0.0002655566132
-1.666436009
-0.06162784901
-0.1096184797
-0.5578951239
-0.1075157683
-0.2223762122
-1.485510591
-0.07676460924
-0.2196435242
-0.5079931612
-0.1536388124
-0.2945996556
-1.28997899
-0.2414628238
-0.5053770068
-0.17560407
-0.2944348192
-0.6504358523
-0.7753959588
-0.1853266917
-0.5304297801
-0.09434963843
-0.08524997631
-0.2964179464
-0.6752273976
-0.09191663569
-0.2105437943
0.03074768582
-0.1145548573
-0.2076679421
-0.2343828733
-0.1665519532
-0.2887681929
0.2462528386
-0.1117157098
-0.1944822301
-0.05952716684
0.7886710595
0.4603396725
-0.05570269561
0.6236066923
-1.29638324
-0.004067524041
0.5809026949
-0.03398244608
-0.03732358218
0.5110591516
-1.553434929
0.02856469358
0.3959970619
-0.6502476537
-0.1090975673
0.2179649241
-2.10720377
-0.05525472181
0.09334748225
-0.8380807911
-0.04259200202
0.02355505093
-1.916300193
-0.01591162519
-0.09194632033
-0.7032968869
-0.05613232229
-0.2005388604
-1.623245429
-0.05123902501
-0.1759750645
-0.5833075744
-0.0828252831
-0.2200709345
-1.548339994
-0.1944365824
-0.4879430753
-0.7174094914
-0.2971855598
-0.6885762164
-1.194995353
-0.2058034451
-0.5748369569
-0.1127009725
-0.05150786398
-0.2922503263
-0.5218982222
-0.03355910839
-0.1848358937
0.03916635435
-0.07384040686
-0.2323498748
-0.5229760762
-0.1600045578
-0.3598298455
-0.1357122089
-0.121502421
-0.3894303653
-0.0610814886
0.4931398152
0.4418064324
-0.03472315145
0.4401426063
-1.363537661
-0.006658356685
0.3937850686
-0.0268349613
-0.03589817712
0.2936945003
-1.542021436
0.004244464459
0.2363815618
-0.6369535526
-0.08567192237
0.1793977107
-2.193460241
-0.05257095285
0.1155030853
-1.026440331
-0.03386347231
0.07068648583
-2.120497284
-0.01733725975
-0.03686223795
-0.8632673001
-0.08713754793
-0.1559164042
-1.800114866
-0.1042716565
-0.156689006
-0.6862575773
-0.09476693814
-0.1698027873
-1.686031503
-0.1291325412
-0.3074669373
-1.032312171
-0.2311407971
-0.4274606675
-1.491334114
-0.2037723146
-0.3867447926
-0.2412197564
-0.09165611404
-0.2270173409
-0.5227086163
-0.03858688539
-0.1797693977
0.009812215844
-0.06166711995
-0.1967067681
-0.6562921585
-0.113503639
-0.1970673925
-0.2769448298
-0.0616956906
-0.4539072369
-0.02864829199
0.4465843535
0.5033588713
-0.03214317932
0.4829893132
-1.268385046
0.01940727882
0.3851836051
-0.05156282713
-0.02886197158
0.2038627545
-1.66451476
0.01363244637
0.1601028119
-0.5574082613
-0.004986257721
0.1725609349
-2.074892775
0.03219231269
0.1955479975
-0.9925684294
0.03306321372
0.1522227488
-2.188185481
0.03493882223
0.01412534485
-1.065942718
-0.08714035109
-0.1353617245
-2.075434295
-0.1233471696
-0.2424308828
-0.9109623591
-0.07280233033
-0.2575628665
-1.792987386
-0.04154323985
-0.2371668005
-0.9856469324
-0.07818665154
-0.2495222725
-1.55364424
-0.1312850177
-0.279719715
-0.4533390219
-0.1063229047
-0.2845480191
-0.7427251641
-0.05722985218
-0.3293356652
-0.09132552053
-0.04123705614
-0.2985691015
-0.6191462363
-0.04646936209
-0.1268693115
-0.07962571615
0.01659053858
-0.3155235097
0.0097903132
0.1593580663
0.6221073461
-0.01840297003
0.2655232467
-1.080344212
-0.005050262393
0.1840553682
-0.1185827516
-0.03119131629
-0.004814160511
-1.84888294
-0.04205370424
-0.02891287123
-0.4910457075
0.00507456189
0.06558374075
-1.788658566
0.02669711594
0.1571130212
-0.7859000016
0.03252843597
0.1735898847
-2.091704121
0.002149307792
0.06688969838
-1.218054539
-0.1183230817
-0.07346598475
-2.310872783
-0.1656273054
-0.1848024974
-1.195140269
-0.08416767225
-0.2038643951
-1.86794444
-0.001061646302
-0.08803422805
-0.816235398
-0.006074007955
-0.002046062203
-1.372529444
-0.06019376346
-0.04903566388
-0.6199278786
-0.1043860223
-0.1736875028
-1.035751178
-0.07727672978
-0.2545199164
-0.2505178909
-0.04367939143
-0.1855320887
-0.4886707994
-0.005337453757
0.0290600025
0.2728456132
0.06256466195
-0.1318167475
0.02948505779
0.1810687785
-0.009795636432
0.1808148944
0.0124251748
0.1241551643
-0.01365098151
0.08168862564
0.04053607483
0.01801420576
0.01152169263
0.0431027255
0.03705533602
0.1127387775
0.04625767402
0.07830437109
0.01061917631
0.01943418141
-0.03863657305
-0.04822543131
-0.02609815789
-0.1454591407
-0.02750372811
-0.1167790953
0.03811246735
-0.04119069276
0.04713284974
-0.0224829859
-0.02583116444
-0.04180968888
-0.03685161687
-0.1017583843
-0.02338146771
-0.1957558243
-0.026321316
-0.1580740541
0.007651832553
-0.01075902093
0.05722072621
0.005680638077
0.9872634942
0.03378457641
-0.2700238679
0.983100971
0.05126408962
0.02688764325
0.8758599962
0.08326153258
-0.2758253706
0.6048979014
0.01023344097
0.02721146747
0.4606437853
0.1672982947
-0.2750662906
0.3279545857
0.1214741278
-0.03544803878
0.2187418647
0.1927281138
-0.207568163
0.1054654057
0.09469983934
-0.09659149058
-0.0150150544
0.03031526249
-0.2350386105
-0.1954288933
-0.09642521709
-0.2324829479
-0.3880661835
-0.1822274671
-0.3888219173
-0.6071514451
-0.113426053
-0.3750773403
-0.6970340105
-0.09276714271
-0.4030795433
-0.6341477247
-0.1128614968
-0.398820628
-0.5828520428
-0.1371309717
-0.2888302989
-0.4825179434
-0.1674075695
-0.3066456255
-0.4601302462
-0.1145353863
-0.1948086166
-0.3808611222
-0.1180669766
-0.2619882375
-0.4217372225
-0.05410335394
-0.09742515864
-0.04245984806
-0.08970522897
1.019698854
0.08259814226
-0.2308212624
0.9630991204
0.04735060473
0.09682799705
0.8896048877
0.1501875779
-0.288382295
0.6410716347
-0.01023965725
-0.004436526931
0.4818150441
0.2649823893
-0.2873421731
0.3282869825
0.1717861208
-0.04949947567
0.1955346198
0.2932547288
-0.2223447095
0.05918894422
0.1262352056
-0.08564659779
-0.06682773095
0.05734107847
-0.1955962119
-0.2237391107
-0.1360053852
-0.2141525061
-0.3785388557
-0.3211119038
-0.3973785657
-0.5924044548
-0.2365504405
-0.3787544832
-0.7127288833
-0.2178730061
-0.3735388148
-0.6673989533
-0.2313602238
-0.3542122077
-0.5959271479
-0.2418299986
-0.2569680756
-0.4761460254
-0.280046985
-0.3020052616
-0.4464094968
-0.188446764
-0.2113577768
-0.3648795978
-0.2111874631
-0.2957089694
-0.4054465509
-0.1117158933
-0.1356604676
-0.09899471485
-0.1121475193
1.037006978
0.163890862
-0.1747390533
0.9240938321
-0.02027528592
0.1907228241
0.8818238099
0.2189328495
-0.2710148232
0.6753445497
-0.03499648926
-0.01035739138
0.4999947384
0.3274745319
-0.3108324953
0.3159992166
0.1656934868
-0.06947935281
0.1495557827
0.3179192671
-0.2653152511
-0.01414270237
0.07308892749
-0.09427310773
-0.158044795
0.08246243309
-0.2414469283
-0.2933668713
-0.1330240141
-0.2281564575
-0.3663085343
-0.3784719317
-0.5137881679
-0.5593735836
-0.3515010416
-0.3921854588
-0.7027281112
-0.3434891648
-0.401227493
-0.6738055389
-0.3437804509
-0.3086221666
-0.5884518487
-0.2885227015
-0.2517587238
-0.441588877
-0.3344392946
-0.3166238388
-0.41265913
-0.2077546122
-0.2504001162
-0.3280524531
-0.2719183032
-0.3235124651
-0.3566647769
-0.146884972
-0.1487220758
-0.1586898773
-0.1189142501
1.087392324
0.2508271212
-0.1319934817
0.9445874941
-0.1241551259
0.2499834939
0.9132848419
0.291652553
-0.2179645868
0.7366284815
-0.03768802298
0.03115213151
0.5495339848
0.3737035385
-0.2889652122
0.3188303982
0.1371784852
-0.06771159498
0.1225414838
0.2866697307
-0.2516351261
-0.05802486132
-0.0380017604
-0.123430677
-0.2396804725
0.04810805725
-0.2653817636
-0.3815318534
-0.1371511002
-0.2692763228
-0.4072261327
-0.3993564727
-0.5399191036
-0.5658693599
-0.4263588905
-0.4054161009
-0.7101597541
-0.4387656596
-0.3880697716
-0.6856906832
-0.4184480428
-0.2944243338
-0.5996129336
-0.2970213646
-0.2505847026
-0.4383816829
-0.3740096395
-0.356614524
-0.410788312
-0.2265630347
-0.2778878478
-0.3216866524
-0.3144560757
-0.3095392588
-0.321397805
-0.1495759147
-0.1021739321
-0.1902790727
-0.0915268437
1.081735678
0.3270724707
-0.159696907
0.9339641777
-0.2311739485
0.2078922097
0.9043593942
0.3861181097
-0.2167922073
0.7458971193
-0.01886294419
0.07392900808
0.545469018
0.4531658652
-0.2975813204
0.2701345114
0.08252233988
-0.058658363
0.05295506671
0.2985607318
-0.2901482592
-0.1079194485
-0.1620992583
-0.1769707648
-0.3054517281
0.01328294799
-0.4493477443
-0.4785926755
-0.1888595175
-0.3214334304
-0.4399185647
-0.3457962421
-0.7484822956
-0.5574712205
-0.4338788151
-0.3927123818
-0.658340247
-0.4142920371
-0.4958273351
-0.6361021755
-0.4336492418
-0.3050117888
-0.5677848021
-0.2419394828
-0.3120182109
-0.4011953551
-0.4089193606
-0.3985396756
-0.3729647979
-0.2322133037
-0.3126142924
-0.2749030223
-0.3345977467
-0.2782501552
-0.2423234641
-0.08519999855
-0.03465714012
-0.1618435253
-0.04673686547
1.137320889
0.368465357
-0.2237556695
1.021602136
-0.3014619271
0.06739728282
0.9678136028
0.4680056425
-0.2371669044
0.7871881012
-0.02268624221
0.09439445648
0.5678754847
0.4936373498
-0.2661717651
0.2386028784
-0.02648153777
-0.03604135853
0.002741529647
0.3401574016
-0.2499911398
-0.1328590862
-0.2356223755
-0.2214350742
-0.3443047126
-0.03058728315
-0.5027345254
-0.5494841284
-0.2973772604
-0.356821538
-0.5237080024
-0.3125386185
-0.7490449394
-0.5929140587
-0.4019628603
-0.3706976674
-0.655202679
-0.3068847317
-0.4993232269
-0.6282718281
-0.3909120739
-0.3625865629
-0.5888026055
-0.1481457834
-0.3338321219
-0.4207956145
-0.3972868336
-0.4167316645
-0.36771072
-0.2050622132
-0.3118612143
-0.2608581023
-0.3241169784
-0.2524259772
-0.212403513
0.01377855317
0.004075695257
-0.09818768166
-0.01982630526
1.120123316
0.3894955116
-0.3040093028
1.068718053
-0.3730379154
-0.05253886246
0.9649197117
0.4839596712
-0.2821908164
0.7535440532
-0.1327672121
0.09196869736
0.5143539769
0.4633807349
-0.2788350475
0.1671775115
-0.2247796816
-0.0232570532
-0.09906005983
0.3900085833
-0.2773862986
-0.2047347141
-0.259316198
-0.2324345758
-0.3804807424
0.04963961074
-0.6666551048
-0.5797530783
-0.4002441841
-0.3760400446
-0.5206074353
-0.06944350555
-1.164828777
-0.5906246974
-0.3505056281
-0.3245791916
-0.6057684533
-0.06946100101
-0.6670273341
-0.5725166254
-0.3279059093
-0.4243233154
-0.5700467247
-0.003138549352
-0.3932982083
-0.3927862915
-0.3276826521
-0.3827740913
-0.3000921695
-0.1016575552
-0.2999620504
-0.1702859082
-0.2966030999
-0.2624870554
-0.1449008395
0.08960557624
-0.03377225335
-0.06254808676
-0.04067796535
1.186027028
0.393405322
-0.2942564599
1.171515528
-0.4463733812
-0.05701387146
1.039636978
0.4010460413
-0.2580637664
0.7736669446
-0.3462112108
0.09040088983
0.519330405
0.332497946
-0.2360039027
0.1773602998
-0.4705021569
-0.02426750263
-0.1387151013
0.3579395437
-0.2317372562
-0.2727339846
-0.2822276304
-0.2144105341
-0.4341579871
0.2128747966
-0.5918612564
-0.6066227676
-0.4367592615
-0.4154180609
-0.5184791641
0.2961691434
-1.335116956
-0.5842642223
-0.2877611745
-0.3886863428
-0.6189070067
0.1701560919
-0.68204554
-0.586353605
-0.2840724484
-0.5009842988
-0.6139459973
0.1251680444
-0.373625632
-0.4367389287
-0.2105905843
-0.3272034591
-0.2976723192
0.05456518004
-0.2536953534
-0.146253844
-0.2567245692
-0.2990109461
-0.1520774761
0.1001984349
-0.1264457816
-0.09907845932
-0.1001404829
1.124819554
0.43152142
-0.227180277
1.125959527
-0.5513899667
0.08012471019
0.9970671038
0.297597036
-0.2231539429
0.7129529212
-0.5953579593
0.08520617885
0.4659438711
0.2215049123
-0.2473619088
0.1844024608
-0.687689475
-0.0391260152
-0.1408329372
0.2509807736
-0.2877407631
-0.3107417698
-0.3935750221
-0.1723946648
-0.414401081
0.3434091322
-0.511071342
-0.5473200161
-0.488174132
-0.2950253138
-0.5015939037
0.442017526
-1.082046626
-0.6038432783
-0.3006121941
-0.3612071891
-0.6116274937
0.3260845983
-0.7036949315
-0.5665704291
-0.3018294787
-0.4840922814
-0.5781098823
0.2152816716
-0.4056122809
-0.4156354422
-0.1074739866
-0.3003367429
-0.2646460285
0.2237309048
-0.2490064461
-0.08013521012
-0.2173125637
-0.3220121206
-0.09375687379
0.06819945396
-0.2023932682
-0.191397523
-0.1586727412
1.152294189
0.4969725237
-0.1073495498
1.134009986
-0.643136277
0.2544505624
1.043463183
0.2484662279
-0.1251479048
0.7456274369
-0.7725808309
0.07868604607
0.4974538677
0.1927099402
-0.2084327483
0.2490530818
-0.8121626453
-0.04151984904
-0.06581441937
0.08447552727
-0.2725707
-0.3037383317
-0.6063669308
-0.1523886539
-0.4477094162
0.3637680152
-0.2991576868
-0.5445470043
-0.5487319947
-0.2652100733
-0.4938322595
0.4181317549
-0.7891495947
-0.6255635191
-0.3457989647
-0.429267841
-0.670446746
0.4044819166
-0.5527676839
-0.5917885506
-0.2938543035
-0.4384404583
-0.5759756845
0.2709088826
-0.3957106804
-0.4644815625
-0.05470896023
-0.3647005352
-0.3432415475
0.3329657114
-0.2607559417
-0.1446685814
-0.1695231453
-0.304213299
-0.1172273594
0.05220075322
-0.1965058313
-0.2640231005
-0.1561981406
1.036619351
0.5716841222
-0.05371923807
1.007285109
-0.7046520674
0.3295748657
0.9608854066
0.2845565017
-0.1251861132
0.6994253673
-0.9072785068
0.04480601952
0.43979782
0.1859287535
-0.2183716069
0.2279155509
-0.9041213488
-0.03326439686
-0.01846050863
-0.06093559338
-0.3186837787
-0.2491922804
-0.9083602587
-0.151285798
-0.4417598908
0.2674562923
-0.2719686697
-0.5057740333
-0.6483881921
-0.235644105
-0.4412774863
0.3672121337
-0.763506508
-0.5903902823
-0.467648234
-0.4106177996
-0.6529584011
0.4357539956
-0.4846974182
-0.5557363092
-0.2433942959
-0.3433679746
-0.493714592
0.3186279897
-0.4444666893
-0.4195454584
-0.1064645461
-0.4671824126
-0.358522515
0.3465352109
-0.3172746864
-0.1513618264
-0.1273759403
-0.250874669
-0.05936211887
0.1202250143
-0.1144922309
-0.2594573142
-0.103600602
1.072440924
0.6364227855
-0.05969076811
1.026135888
-0.743661245
0.2750034527
0.9898222244
0.312491436
-0.1312845533
0.7573828865
-1.054797308
0.02492263282
0.4538217857
0.06253873317
-0.1643846043
0.2200761258
-1.056128425
0.01435870136
0.04904541418
-0.1640767954
-0.2174622712
-0.164363571
-1.177597482
-0.1340075308
-0.4079370002
0.06458897763
-0.1866770375
-0.4906512111
-0.7674526478
-0.2467640502
-0.4425259119
0.2476605202
-0.5732709599
-0.5737438523
-0.6530149612
-0.4182026863
-0.6770088848
0.365554532
-0.3514572676
-0.5954335707
-0.2005005173
-0.2848653399
-0.5204832081
0.3481737475
-0.4064775072
-0.4614439239
-0.2238891319
-0.5346972766
-0.4426692943
0.2831278306
-0.3435089864
-0.258348232
-0.09106178364
-0.1991313177
-0.1095048198
0.2521077225
-0.0251953432
-0.1942979821
-0.03696464338
0.9508333051
0.68547711
-0.1301581519
0.881588838
-0.8267623909
0.1194666484
0.8252073592
0.2555462833
-0.1765043163
0.6644847195
-1.252812126
-0.002397524584
0.3719330929
-0.1688365643
-0.1817081875
0.1362774297
-1.333303888
0.001621134912
0.03974643792
-0.217370374
-0.1755741789
-0.08821704948
-1.342645796
-0.1425747259
-0.3096491844
-0.1394460627
-0.2674546965
-0.4337223971
-0.9242706502
-0.25022849
-0.3881175486
0.09029765958
-0.5184016446
-0.4691675286
-0.8814826976
-0.4058331948
-0.5645966363
0.1938808779
-0.3975310736
-0.5608662515
-0.2698255183
-0.2777180489
-0.4979678764
0.3303112855
-0.373480804
-0.4036606815
-0.3335061442
-0.50137758
-0.3710102365
0.2046698422
-0.3460885299
-0.2107967017
-0.0894848233
-0.1982018608
-0.07876090769
0.3544853429
-0.01206230263
-0.129885509
-0.01922941647
0.9904513631
0.666960343
-0.1594447803
0.8902658368
-0.9708877241
0.01620044687
0.792662543
0.1373264944
-0.1505360406
0.655256876
-1.445193583
0.04000170494
0.4190639152
-0.4073879799
-0.1452748472
0.1696934053
-1.648535247
-0.001041923153
0.06293490488
-0.3063658246
-0.07671799346
-0.02735749793
-1.439985053
-0.100379336
-0.2199176099
-0.3200911619
-0.2352565162
-0.4095810217
-1.132022729
-0.1997034542
-0.4245182613
-0.1083667745
-0.3103638735
-0.4128436433
-1.084495372
-0.3864031609
-0.5076157388
-0.05929887924
-0.4218343814
-0.6034724175
-0.5181711852
-0.3290102914
-0.5896350491
0.2229572423
-0.2604789274
-0.4520344707
-0.4023264615
-0.3490618812
-0.3660735662
0.1578347747
-0.2795863223
-0.2448254972
-0.1434394079
-0.235070851
-0.1786151086
0.3374636214
-0.07423980232
-0.127190383
-0.04821104243
0.7771680232
0.6166005366
-0.1474074813
0.6768409046
-1.152604954
-0.03026052534
0.5811915021
0.05227755014
-0.1281129527
0.4714306892
-1.528873248
0.04540648806
0.3601167567
-0.494394297
-0.1857322571
0.1878333235
-1.883602355
-0.08499473913
0.06041677054
-0.4719200756
-0.1241870792
0.002159613495
-1.577464991
-0.120120121
-0.1480428536
-0.5089526928
-0.2482306553
-0.3449994654
-1.415480465
-0.1785957364
-0.3769903429
-0.2979506794
-0.2447142563
-0.3020302906
-1.175290563
-0.3656744238
-0.3444519771
-0.3151905068
-0.5252382797
-0.4927262822
-0.8798709112
-0.4068355361
-0.5366978886
0.03490801377
-0.2210142988
-0.3800703646
-0.4322947533
-0.2028404211
-0.2426216675
0.1591321684
-0.2141988774
-0.1479954828
-0.2417472593
-0.2879300219
-0.1490378135
0.2109872617
-0.1739576947
-0.2031597892
-0.09677644124
0.7418266213
0.5575835017
-0.09414280153
0.6632842635
-1.318571206
0.0370719472
0.5735649626
0.03126483771
-0.05527870649
0.431922871
-1.541815913
0.09331589966
0.3915250438
-0.4528458892
-0.1308208911
0.2801584733
-2.00212748
-0.04821095264
0.1150597699
-0.70173957
-0.08339116642
0.01354185916
-1.807620813
-0.04558027738
-0.1237754236
-0.7487498149
-0.1246449598
-0.304153379
-1.743728346
-0.1368117682
-0.3886666573
-0.4805467036
-0.1449460999
-0.3223432586
-1.220120665
-0.2725896046
-0.3172881684
-0.4815161569
-0.437445887
-0.436461993
-1.198962099
-0.3980422617
-0.524295019
-0.199364213
-0.1792822915
-0.4097845251
-0.4861826516
-0.114735556
-0.2840019622
0.1554997383
-0.1330693918
-0.1974015952
-0.34300721
-0.2647616067
-0.2081714999
0.05825337114
-0.1862933884
-0.2900189726
-0.09858810222
0.4583684394
0.5197824494
-0.04841780143
0.4626457376
-1.367461146
0.05011397155
0.3871339753
0.03634092257
-0.04461940836