/*--------------------------------*- C++ -*----------------------------------*\
| =========                 |                                                 |
| \\      /  F ield         | OpenFOAM: The Open Source CFD Toolbox           |
|  \\    /   O peration     | Version:  5.x                                   |
|   \\  /    A nd           | Web:      www.OpenFOAM.org                      |
|    \\/     M anipulation  |                                                 |
\*---------------------------------------------------------------------------*/
FoamFile
{
    version     2.0;
    format      ascii;
    class       volScalarField;
    location    "2.4";
    object      p;
}
// * * * * * * * * * * * * * * * * * * * * * * * * * * * * * * * * * * * * * //

dimensions      [1 -1 -2 0 0 0 0];

internalField   nonuniform List<scalar> 
30538
(
101298.4153
101295.3354
101294.0842
101294.162
101297.0017
101301.6918
101308.5801
101315.1935
101320.9433
101323.7857
101323.6631
101320.4373
101315.9678
101311.6588
101308.2264
101306.5516
101306.2596
101305.7337
101304.5707
101302.1299
101297.7809
101293.6192
101291.4505
101290.949
101293.5743
101298.3791
101305.6273
101312.8075
101319.2269
101322.8178
101323.4646
101320.998
101317.2001
101313.4383
101310.3967
101308.8667
101308.4333
101307.5211
101305.7244
101302.5353
101296.5903
101290.4053
101286.5339
101284.9695
101287.198
101292.2037
101300.1375
101308.3428
101316.0156
101320.9772
101323.0573
101322.0008
101319.4719
101316.7455
101314.4527
101313.1961
101312.5022
101310.8697
101307.893
101303.304
101294.9967
101286.1018
101279.9736
101277.0141
101278.7055
101283.9642
101292.7914
101302.3343
101311.6254
101318.4197
101322.3909
101323.2319
101322.4135
101321.1189
101319.8469
101318.9831
101317.9437
101315.3531
101310.8073
101304.348
101293.2196
101281.2778
101272.6344
101268.1304
101269.2204
101274.7277
101284.5316
101295.5096
101306.6102
101315.4136
101321.5182
101324.4807
101325.6184
101325.9688
101325.887
101325.4812
101324.0568
101320.3859
101314.083
101305.5358
101291.502
101276.5908
101265.4423
101259.4494
101259.9269
101265.639
101276.3154
101288.6096
101301.3975
101312.2028
101320.3962
101325.4766
101328.5645
101330.611
101331.7445
101331.8368
101330.0404
101325.2986
101317.2864
101306.7033
101290.0897
101272.7037
101259.3657
101252.1293
101252.0368
101257.8537
101269.1692
101282.4359
101296.6322
101309.0479
101319.0258
101325.9964
101330.8731
101334.453
101336.6964
101337.2505
101335.1307
101329.4228
101320.0187
101307.6841
101289.2082
101270.1959
101255.3169
101247.2401
101246.6543
101252.4031
101263.9533
101277.6776
101292.6579
101306.1094
101317.337
101325.7185
101331.9986
101336.8991
101340.0738
101341.0238
101338.6543
101332.2116
101321.8484
101308.3152
101288.9804
101269.4357
101253.9739
101245.5428
101244.592
101250.077
101261.3568
101274.924
101289.8781
101303.5464
101315.3336
101324.5531
101331.8077
101337.573
101341.3789
101342.6714
101340.1669
101333.3036
101322.4876
101308.4773
101289.4075
101270.5424
101255.4942
101247.2413
101246.0376
101250.9966
101261.5223
101274.2599
101288.3069
101301.4138
101313.0457
101322.5265
101330.2631
101336.5244
101340.6895
101342.1228
101339.5142
101332.6019
101321.8967
101308.1707
101290.4126
101273.2531
101259.5368
101251.8949
101250.6048
101254.8852
101264.1972
101275.4573
101287.914
101299.7127
101310.5394
101319.742
101327.5305
101333.901
101338.1742
101339.5739
101336.973
101330.3562
101320.2741
101307.4771
101291.8563
101277.1902
101265.5227
101258.918
101257.6955
101261.137
101268.838
101278.15
101288.438
101298.4366
101307.9349
101316.4233
101323.9156
101330.0824
101334.2391
101335.4505
101332.9617
101326.9286
101317.901
101306.5315
101293.5744
101281.9305
101272.7537
101267.5193
101266.4869
101269.0427
101274.8566
101281.9068
101289.7379
101297.5777
101305.4471
101312.8861
101319.8053
101325.5519
101329.3813
101330.3765
101328.0712
101322.8024
101315.0914
101305.4646
101295.3518
101286.9232
101280.3556
101276.6394
101275.8851
101277.6068
101281.4494
101286.1772
101291.5188
101297.1582
101303.2708
101309.4769
101315.597
101320.7757
101324.1609
101324.947
101322.8709
101318.4366
101312.1491
101304.3647
101297.0084
101291.5968
101287.5065
101285.2334
101284.7955
101285.7365
101287.8113
101290.3688
101293.4466
101297.072
101301.5285
101306.4922
101311.7073
101316.2031
101319.0944
101319.6963
101317.871
101314.269
101309.3492
101303.3349
101298.3738
101295.4669
101293.4072
101292.3363
101292.1447
101292.4667
101293.1515
101293.9966
101295.257
101297.2584
101300.2713
101304.1352
101308.4251
101312.1715
101314.5448
101314.9888
101313.4323
101310.5893
101306.897
101302.4299
101299.3509
101298.1898
101297.5241
101297.2942
101297.2789
101297.2175
101297.0032
101296.7496
101296.8016
101297.6548
101299.5874
101302.4314
101305.806
101308.7658
101310.6112
101310.9318
101309.6723
101307.5285
101304.8664
101301.6908
101299.9146
101299.7509
101299.849
101300.0586
101300.1493
101299.9132
101299.2857
101298.5214
101298.0036
101298.2103
101299.358
101301.2995
101303.7227
101305.8585
101307.1813
101307.4026
101306.4867
101304.9962
101303.2106
101301.0933
101300.115
101300.325
101300.6348
101300.9448
101301.0427
101300.8186
101300.2111
101299.4974
101298.9505
101298.9388
101299.5577
101300.7034
101302.1232
101303.404
101304.1829
101304.3051
101303.7308
101302.8607
101301.8192
101300.6187
101300.0849
101300.2199
101300.4015
101300.4929
101300.5557
101300.4193
101300.1684
101299.8273
101299.6077
101299.5669
101299.7998
101300.1908
101300.6941
101301.1188
101301.3802
101301.4131
101301.2183
101300.9243
101300.5854
101300.1938
101300.2574
101300.3703
101301.7034
101303.4292
101306.6899
101310.8389
101315.9481
101320.4948
101324.1596
101325.317
101324.0717
101320.2319
101315.3586
101310.5548
101306.3967
101304.0068
101303.4519
101303.0142
101302.3786
101301.1265
101299.6343
101298.6737
101299.0881
101300.2047
101303.2369
101307.4921
101312.9642
101318.0871
101322.4286
101324.3161
101323.8003
101320.6664
101316.4184
101312.1309
101308.3667
101306.1532
101305.4904
101304.707
101303.4874
101301.52
101298.4575
101295.4801
101294.1824
101294.18
101296.7896
101301.231
101307.3965
101313.5675
101319.1688
101322.4037
101323.2565
101321.4409
101318.3714
101315.0686
101312.0591
101310.1779
101309.3179
101307.8924
101305.5818
101302.2674
101296.8722
101291.1881
101287.6157
101286.1489
101288.1866
101292.8603
101299.9484
101307.4879
101314.7211
101319.7588
101322.426
101322.3855
101320.9079
101318.966
101316.987
101315.5661
101314.4449
101312.1669
101308.4074
101303.2794
101295.0837
101286.3342
101280.2223
101277.1282
101278.5164
101283.4088
101291.5232
101300.5484
101309.5985
101316.6332
101321.3683
101323.319
101323.6722
101323.3103
101322.5336
101321.6372
101320.221
101316.9775
101311.5975
101304.4284
101293.3244
101281.5394
101272.8898
101268.2096
101268.9304
101273.9867
101283.0538
101293.4837
101304.2469
101313.2653
101320.0424
101324.0256
101326.2311
101327.4965
101327.9444
101327.6009
101325.8946
101321.6896
101314.7206
101305.5634
101291.829
101277.4369
101266.5169
101260.4942
101260.5923
101265.7207
101275.5368
101287.0589
101299.2564
101309.9127
101318.4513
101324.2706
101328.2133
101330.9892
101332.552
101332.707
101330.7388
101325.6634
101317.373
101306.5396
101290.8075
101274.5742
101261.9448
101254.9937
101254.5533
101259.6285
101269.8274
101281.9464
101295.0042
101306.7466
101316.5629
101323.7993
101329.1321
101333.1942
101335.7111
101336.32
101334.1445
101328.3859
101319.1751
101307.1993
101290.3874
101273.3136
101259.8193
101252.408
101251.5922
101256.5081
101266.6096
101278.7153
101291.8801
101303.9433
101314.3851
101322.5261
101328.8609
101333.8152
101336.9851
101337.9538
101335.6838
101329.5482
101319.8944
101307.4376
101290.5733
101273.789
101260.3637
101252.9884
101251.9543
101256.4665
101266.0152
101277.4688
101289.9369
101301.5742
101311.9803
101320.4866
101327.3769
101332.8827
101336.4808
101337.6383
101335.3048
101329.1039
101319.5142
101307.2437
101291.3145
101275.7834
101263.308
101256.4329
101255.348
101259.2957
101267.8325
101278.0171
101289.1307
101299.6583
101309.4119
101317.7671
101324.8153
101330.5146
101334.2862
101335.5008
101333.1974
101327.2558
101318.1934
101306.697
101292.4817
101278.9814
101268.1903
101262.1934
101261.196
101264.4907
101271.6322
101280.0913
101289.2868
101298.202
101306.7983
101314.5729
101321.448
101327.0526
101330.8135
101331.9122
101329.7414
101324.31
101316.1667
101305.8968
101293.9325
101283.0041
101274.3927
101269.5798
101268.7909
101271.3508
101276.8318
101283.2732
101290.2569
101297.2196
101304.3286
101311.1835
101317.6112
101322.9267
101326.47
101327.4308
101325.4364
101320.681
101313.6951
101304.9564
101295.4818
101287.3708
101281.1065
101277.6443
101277.1288
101278.9602
101282.6832
101287.0276
101291.7538
101296.7034
101302.1876
101307.9315
101313.693
101318.5766
101321.7845
101322.5978
101320.8001
101316.7779
101311.0592
101303.9637
101296.9678
101291.5629
101287.5475
101285.3886
101285.1494
101286.2835
101288.4083
101290.7842
101293.4499
101296.5605
101300.5145
101305.1127
101310.0912
101314.4234
101317.2354
101317.9063
101316.313
101313.0268
101308.5222
101303.0217
101298.2288
101295.1304
101292.9739
101291.9085
101291.8652
101292.4098
101293.2554
101294.0721
101295.1046
101296.7332
101299.3478
101302.9397
101307.0911
101310.7777
101313.1494
101313.6772
101312.3071
101309.6956
101306.2936
101302.1912
101299.1701
101297.7301
101296.8743
101296.5684
101296.6462
101296.7838
101296.7788
101296.5979
101296.5634
101297.174
101298.8013
101301.453
101304.7438
101307.7067
101309.5958
101309.9937
101308.8823
101306.9079
101304.4365
101301.5144
101299.7528
101299.3135
101299.2152
101299.3116
101299.4441
101299.3573
101298.93
101298.282
101297.7607
101297.817
101298.7454
101300.559
101302.9471
101305.1159
101306.4901
101306.7738
101305.9593
101304.5829
101302.9099
101300.9688
101300.0054
101300.0218
101300.1921
101300.4081
101300.5149
101300.3832
101299.9145
101299.2961
101298.7732
101298.6722
101299.1553
101300.2192
101301.6383
101302.9484
101303.7635
101303.9375
101303.4303
101302.6227
101301.6426
101300.5425
101300.0442
101300.1208
101300.2515
101300.3192
101300.3645
101300.2661
101300.0504
101299.7569
101299.5395
101299.4712
101299.6529
101300.0168
101300.5254
101300.9625
101301.245
101301.2956
101301.1287
101300.8451
101300.5242
101300.1657
101302.8022
101307.0808
101311.5701
101315.2523
101318.7062
101321.7118
101324.2288
101325.6847
101326.5067
101325.5177
101323.1298
101318.8143
101313.671
101308.2941
101303.1553
101299.6681
101298.7422
101298.5612
101298.8793
101299.6009
101302.1992
101305.4304
101309.0041
101312.0514
101315.2529
101318.3549
101321.249
101323.3009
101324.7845
101324.5066
101322.7877
101319.1128
101314.5206
101309.6199
101304.8787
101301.6051
101300.6151
101300.1395
101299.9415
101299.9883
101301.0536
101302.3145
101304.1906
101306.0697
101308.8155
101312.0947
101315.7019
101318.8357
101321.5927
101322.6047
101322.1727
101319.6526
101316.1098
101312.1064
101308.1297
101305.251
101304.1455
101303.1185
101301.9517
101300.7192
101299.4895
101298.0838
101297.7073
101298.0438
101300.1726
101303.6762
101308.2099
101312.7867
101317.1673
101319.9676
101321.1719
101320.2749
101318.1454
101315.413
101312.4619
101310.1465
101308.8914
101307.1325
101304.6675
101301.7014
101297.6921
101293.2337
101290.3309
101288.9374
101290.3777
101294.0972
101299.6706
101305.8286
101312.1165
101316.8521
101320.0491
101320.8774
101320.4162
101319.139
101317.3952
101315.7044
101314.2773
101311.6779
101307.7484
101302.8091
101295.8773
101288.3197
101282.8635
101279.7508
101280.467
101284.352
101290.9042
101298.6421
101306.6885
101313.416
101318.4961
101321.2512
101322.4873
101322.7491
101322.23
101321.2048
101319.5964
101316.1607
101310.7826
101303.8915
101294.2597
101283.9306
101276.1276
101271.5261
101271.5851
101275.5321
101283.0145
101292.0408
101301.6543
101309.9815
101316.7998
101321.2611
101324.1431
101325.8417
101326.4724
101325.9908
101324.2072
101320.0047
101313.4014
101304.8236
101293.0292
101280.5462
101270.8609
101265.1564
101264.6628
101268.6138
101276.7146
101286.6022
101297.1592
101306.6893
101314.7895
101320.6745
101324.8723
101327.8201
101329.4103
101329.5022
101327.57
101322.748
101315.2605
101305.5109
101292.3221
101278.562
101267.6578
101261.3855
101260.5174
101264.4513
101272.7907
101282.9116
101293.7874
101303.7497
101312.5864
101319.4283
101324.6642
101328.5341
101330.8371
101331.3074
101329.299
101324.132
101316.1754
101305.87
101292.1548
101278.1014
101266.7973
101260.4304
101259.4087
101263.1377
101271.2594
101281.0025
101291.4388
101301.2441
101310.2135
101317.5759
101323.4337
101327.9444
101330.7418
101331.4867
101329.4622
101324.1902
101316.1795
101305.8728
101292.4936
101279.024
101268.1778
101262.1104
101261.1489
101264.557
101272.0118
101280.788
101290.226
101299.1989
101307.7794
101315.162
101321.3306
101326.141
101329.236
101330.1103
101328.1489
101323.0437
101315.3644
101305.5695
101293.2579
101281.1319
101271.4245
101266.0599
101265.2779
101268.3076
101274.6894
101282.0791
101289.9417
101297.6298
101305.3052
101312.3295
101318.482
101323.3638
101326.5716
101327.4794
101325.6522
101320.9353
101313.9134
101305.0106
101294.3247
101284.0963
101276.0557
101271.6678
101271.1628
101273.7229
101278.7927
101284.5036
101290.522
101296.5601
101302.9883
101309.2896
101315.19
101319.9533
101323.1122
101323.995
101322.344
101318.1561
101312.0097
101304.2898
101295.5315
101287.5361
101281.4218
101278.1713
101277.9563
101279.9945
101283.6361
101287.5627
101291.6445
101295.9567
101300.9583
101306.347
101311.7642
101316.2905
101319.272
101320.1095
101318.6323
101315.0296
101309.8756
101303.4816
101296.7682
101291.015
101286.8241
101284.6807
101284.7233
101286.1978
101288.5142
101290.7477
101293.0606
101295.7582
101299.3877
101303.7947
101308.6
101312.7485
101315.4752
101316.2432
101314.9323
101311.9306
101307.7528
101302.6898
101297.8703
101294.1497
101291.6039
101290.4024
101290.586
101291.5292
101292.7214
101293.616
101294.521
101295.9189
101298.3619
101301.8479
101305.938
101309.5806
101311.9747
101312.6415
101311.5271
101309.1108
101305.838
101301.9764
101298.7727
101296.6217
101295.2767
101294.7404
101294.9677
101295.4803
101295.876
101295.8875
101295.9006
101296.4096
101297.9457
101300.5622
101303.863
101306.8611
101308.836
101309.3915
101308.4965
101306.6446
101304.1934
101301.3778
101299.4003
101298.3256
101297.7766
101297.6068
101297.8278
101298.0312
101297.9716
101297.5431
101297.1475
101297.1751
101298.052
101299.87
101302.302
101304.5442
101306.0216
101306.445
101305.7961
101304.4908
101302.783
101300.8851
101299.764
101299.3479
101299.2011
101299.2201
101299.3489
101299.4166
101299.197
101298.7483
101298.3336
101298.2244
101298.6778
101299.7436
101301.2212
101302.5933
101303.4952
101303.772
101303.3803
101302.6064
101301.59
101300.4924
101299.9568
101299.8957
101299.9187
101299.9341
101299.9808
101299.9452
101299.7994
101299.5693
101299.3827
101299.3073
101299.474
101299.8364
101300.3753
101300.8467
101301.1687
101301.2642
101301.1355
101300.8576
101300.5145
101300.1476
101304.6637
101311.3628
101317.7967
101322.6337
101325.7956
101327.7451
101327.8731
101326.6888
101325.1666
101322.742
101319.8101
101315.4513
101310.1307
101304.39
101298.721
101294.7407
101293.6008
101293.8725
101295.4619
101298.155
101304.0767
101309.7963
101315.3551
101319.5601
101322.4643
101324.4716
101324.9898
101324.3879
101323.5199
101321.7692
101319.4469
101315.6645
101310.8722
101305.5992
101300.3085
101296.5359
101295.3515
101295.3622
101296.4883
101298.5398
101302.9621
101306.8358
101310.7599
101313.7912
101316.2278
101318.3469
101319.5953
101320.0682
101320.4508
101319.945
101318.7844
101316.0747
101312.2729
101307.8723
101303.3181
101299.9328
101298.663
101298.1804
101298.4254
101299.2557
101301.4375
101302.803
101304.5245
101305.9905
101307.8017
101310.087
101312.3069
101314.2387
101316.2772
101317.484
101317.864
101316.6058
101314.14
101310.9386
101307.3681
101304.5171
101303.1416
101301.9954
101301.0428
101300.203
101299.6669
101298.1435
101297.3395
101297.0323
101298.1302
101300.5916
101303.8829
101307.4781
101311.4551
101314.5834
101316.7771
101317.1521
101316.229
101314.4087
101311.9987
101309.7649
101308.2645
101306.3505
101304.0241
101301.2634
101297.8399
101293.3364
101289.9366
101287.8467
101288.1988
101290.8205
101295.1808
101300.4533
101306.3329
101311.4289
101315.4371
101317.5332
101318.2041
101317.8325
101316.605
101315.0282
101313.4085
101310.7131
101306.9975
101302.3045
101296.1403
101288.8562
101283.0771
101279.386
101279.0726
101281.8068
101287.1417
101293.8977
101301.4987
101308.2692
101313.8926
101317.6156
101319.8379
101320.8751
101320.7796
101319.7628
101318.0238
101314.5979
101309.6463
101303.2148
101294.7497
101285.1236
101277.4203
101272.4664
101271.6352
101274.4728
101280.5502
101288.4445
101297.1934
101305.244
101312.1652
101317.2315
101320.7613
101322.9944
101323.8874
101323.48
101321.662
101317.6316
101311.7352
101303.9115
101293.8042
101282.559
101273.4727
101267.8301
101266.6613
101269.5754
101276.1277
101284.5909
101293.8717
101302.5804
101310.3278
101316.3898
101320.9433
101324.1209
101325.7913
101325.8244
101323.9444
101319.531
101313.0514
101304.3743
101293.3383
101281.286
101271.5194
101265.6429
101264.3514
101267.2291
101273.8953
101282.335
101291.5243
101300.3373
101308.4147
101315.0867
101320.3483
101324.2124
101326.4452
101326.817
101324.9439
101320.3414
101313.6136
101304.5864
101293.3226
101281.2696
101271.497
101265.8192
101264.643
101267.4356
101273.8113
101281.6472
101290.162
101298.5123
101306.4724
101313.3567
101319.0098
101323.2878
101325.8923
101326.4879
101324.6793
101320.1069
101313.4198
101304.556
101293.7069
101282.3635
101273.2392
101268.1197
101267.2307
101269.8899
101275.5869
101282.3737
101289.6975
101297.0944
101304.4885
101311.218
101316.9987
101321.4666
101324.3003
101325.0295
101323.3557
101318.9981
101312.623
101304.2936
101294.3998
101284.3215
101276.3664
101272.0538
101271.5507
101273.9881
101278.7446
101284.181
101290.0077
101296.0947
101302.5443
101308.7913
101314.4702
101318.9573
101321.8787
101322.7018
101321.1912
101317.1982
101311.3468
101303.8471
101295.2882
101286.8764
101280.4098
101277.0522
101276.9198
101279.0457
101282.7079
101286.6425
101290.8401
101295.4726
101300.7695
101306.3162
101311.6812
101316.054
101318.9389
101319.8212
101318.4882
101314.9298
101309.7619
101303.2722
101296.2856
101289.6863
101284.8107
101282.3907
101282.548
101284.2687
101286.8567
101289.3332
101291.9948
101295.2179
101299.3276
101304.0533
101308.936
101313.0505
101315.7909
101316.6969
101315.5407
101312.4769
101308.0528
101302.6608
101297.2437
101292.432
101289.024
101287.4205
101287.7104
101288.9965
101290.6213
101291.8944
101293.3035
101295.3403
101298.3488
101302.2163
101306.462
101310.1544
101312.6426
101313.5232
101312.5691
101310.028
101306.3802
101302.0605
101298.137
101294.8459
101292.6312
101291.6305
101291.9345
101292.8063
101293.6921
101294.1225
101294.6879
101295.8289
101297.9232
101300.8982
101304.3737
101307.473
101309.5894
101310.389
101309.6455
101307.656
101304.7893
101301.5116
101298.8371
101296.8077
101295.5102
101294.9173
101295.173
101295.6934
101296.0778
101296.0383
101296.1221
101296.6707
101298.0085
101300.1155
101302.6994
101305.0507
101306.6864
101307.3252
101306.811
101305.3733
101303.3091
101301.0053
101299.3858
101298.3105
101297.6611
101297.3519
101297.5025
101297.7914
101297.9148
101297.7428
101297.657
101297.8776
101298.6248
101299.895
101301.4485
101302.9031
101303.9264
101304.3512
101304.0485
101303.1924
101301.933
101300.5766
101299.8057
101299.5471
101299.3886
101299.3549
101299.3847
101299.4538
101299.3918
101299.2535
101299.1416
101299.1816
101299.4434
101299.8885
101300.4647
101300.9727
101301.3646
101301.498
101301.4184
101301.0885
101300.6616
101300.1757
101305.3187
101312.1646
101318.8346
101323.7262
101326.2882
101327.2835
101326.0563
101323.1612
101320.4138
101317.1726
101314.1595
101309.7211
101304.3197
101298.4955
101293.0814
101289.8018
101288.8801
101289.7991
101292.8508
101297.1392
101304.7485
101310.7237
101316.5698
101320.8496
101323.157
101324.2027
101323.2918
101320.9625
101318.8036
101316.2434
101313.7697
101309.9339
101305.063
101299.7344
101294.6624
101291.4969
101290.5367
101291.2431
101293.8483
101297.5097
101303.6775
101307.9875
101312.2868
101315.4332
101317.2835
101318.4105
101318.204
101316.9123
101316.053
101314.6273
101313.318
101310.434
101306.5838
101302.0996
101297.7269
101294.7588
101293.7049
101293.9671
101295.7138
101298.1833
101302.2078
101304.2341
101306.4193
101308.0402
101309.2479
101310.5142
101311.1528
101311.369
101312.032
101312.3883
101312.4207
101311.0823
101308.5553
101305.3047
101301.8055
101299.2106
101298.014
101297.6435
101298.2112
101299.0609
101300.4975
101299.8591
101299.5969
101299.4692
101299.9673
101301.3411
101303.1513
101305.0709
101307.8879
101309.9721
101311.9268
101311.9697
101311.0208
101309.0328
101306.6251
101304.4296
101303.0294
101301.8678
101301.0739
101300.0449
101298.7125
101295.2743
101292.4718
101290.5503
101290.2814
101291.8002
101294.6806
101298.4727
101303.0596
101307.3999
101310.7779
101312.6513
101313.1864
101312.771
101311.4406
101309.775
101308.1655
101306.1845
101303.9882
101301.04
101297.0176
101290.91
101285.7603
101282.2005
101281.2842
101282.9334
101286.9523
101292.3701
101299.1193
101304.9317
101310.2974
101313.3852
101315.5447
101316.3351
101316.104
101314.8426
101313.0341
101310.224
101306.7256
101301.9628
101295.5672
101287.1077
101280.0356
101275.1533
101273.7059
101275.5595
101280.389
101287.1983
101295.0938
101302.6815
101309.0503
101313.655
101317.0237
101319.1088
101319.7943
101319.1137
101317.1588
101313.6668
101309.0702
101302.7481
101294.4914
101284.3034
101275.8218
101270.1448
101268.4054
101270.4082
101275.8734
101283.4805
101292.3994
101300.7048
101308.0811
101313.6864
101318.149
101321.1278
101322.579
101322.2816
101320.2536
101316.232
101310.8168
101303.3452
101293.8339
101282.5702
101273.3266
101267.2774
101265.4239
101267.5507
101273.2627
101281.1993
101290.3026
101299.1003
101307.0168
101313.4043
101318.5819
101322.2838
101324.2685
101324.3386
101322.2894
101317.9375
101311.9703
101303.7312
101293.5847
101281.9408
101272.4595
101266.4961
101264.8095
101267.028
101272.6829
101280.4089
101289.2547
101297.887
101305.9536
101312.7487
101318.4068
101322.5563
101324.9668
101325.2868
101323.2821
101318.7791
101312.5067
101303.9187
101293.7098
101282.3363
101273.1597
101267.6431
101266.3155
101268.5592
101273.8356
101280.8743
101288.8883
101296.9639
101304.7702
101311.6617
101317.5097
101321.9527
101324.6334
101325.1732
101323.2679
101318.7908
101312.4559
101303.9122
101294.1656
101283.5851
101275.2131
101270.3781
101269.516
101271.6738
101276.3468
101282.3132
101289.1726
101296.2749
101303.4862
101310.1148
101315.9708
101320.4913
101323.366
101324.079
101322.3326
101318.0298
101311.862
101303.7424
101294.8516
101285.5073
101278.2902
101274.2864
101273.8447
101275.8254
101279.6884
101284.3807
101289.8506
101295.7993
101302.1264
101308.2759
101313.8787
101318.3414
101321.2763
101322.1533
101320.612
101316.6165
101310.8343
101303.4209
101295.7147
101287.8465
101281.9918
101278.8187
101278.7047
101280.392
101283.3978
101286.7674
101290.8679
101295.5702
101300.8922
101306.3281
101311.4945
101315.7095
101318.5929
101319.592
101318.2935
101314.7187
101309.4927
101302.9991
101296.5883
101290.3464
101285.8571
101283.4593
101283.5148
101284.8687
101287.0345
101289.2426
101292.1074
101295.6362
101299.8786
101304.4765
101308.9828
101312.7992
101315.4908
101316.555
101315.5174
101312.4546
101307.9414
101302.4995
101297.4743
101292.7814
101289.5543
101287.8002
101287.9466
101288.9496
101290.4057
101291.6956
101293.5598
101296.0408
101299.2481
101302.8822
101306.5778
101309.8092
101312.1727
101313.1953
101312.4046
101309.9199
101306.2467
101301.9494
101298.2673
101295.0646
101292.9319
101291.7343
101291.8803
101292.5756
101293.4553
101294.1285
101295.2173
101296.8064
101299.0136
101301.6322
101304.3791
101306.8628
101308.735
101309.5926
101309.0248
101307.1821
101304.4715
101301.3686
101298.9899
101297.1086
101295.8897
101295.1404
101295.2561
101295.6483
101296.1731
101296.492
101297.0708
101297.9666
101299.2613
101300.8171
101302.491
101304.038
101305.232
101305.8007
101305.4534
101304.3217
101302.671
101300.7981
101299.6606
101299.1364
101298.7758
101298.6455
101298.6146
101298.8271
101298.8414
101298.9022
101298.9587
101299.2201
101299.6723
101300.2514
101300.8566
101301.4286
101301.9024
101302.0922
101301.9579
101301.5114
101300.9333
101300.2543
101304.9169
101309.4236
101315.2792
101319.6472
101322.2257
101322.8936
101321.3425
101318.1404
101314.6819
101310.7559
101306.6991
101301.4355
101295.6794
101290.276
101286.0522
101284.3329
101284.4186
101286.1978
101290.8728
101296.4174
101304.3922
101308.1277
101313.2196
101317.0393
101319.3379
101319.9847
101318.7086
101316.0367
101313.1868
101309.9169
101306.4603
101301.807
101296.6269
101291.685
101287.7448
101286.0088
101286.0298
101287.6198
101291.8332
101296.7335
101303.396
101305.6632
101309.2996
101312.0665
101313.8224
101314.4588
101313.748
101312.0463
101310.3896
101308.3455
101306.0503
101302.5792
101298.4448
101294.3498
101290.933
101289.225
101289.0953
101290.2855
101293.6036
101297.3068
101302.0073
101302.2762
101303.9001
101305.2322
101306.3081
101306.9312
101307.0482
101306.7663
101306.7621
101306.4358
101305.6983
101303.7078
101300.977
101298.0617
101295.3553
101293.7184
101293.3269
101293.8858
101295.9666
101298.07
101300.3683
101298.3056
101297.5755
101297.211
101297.4913
101298.2312
101299.3747
101300.7205
101302.6957
101304.3354
101305.4454
101305.2205
101304.1016
101302.5262
101300.6583
101299.1211
101298.3064
101298.037
101298.6866
101298.9698
101298.6378
101294.136
101290.958
101288.8249
101288.3365
101289.2373
101291.512
101294.6362
101298.659
101302.2889
101305.3931
101306.922
101307.4687
101307.2394
101306.2519
101304.8822
101303.6024
101302.3837
101301.5439
101299.9352
101297.0103
101290.1001
101284.684
101280.9002
101279.7078
101280.7866
101284.2356
101289.0282
101295.0627
101300.716
101305.5256
101308.6445
101310.7722
101311.8512
101311.7739
101310.5693
101308.8322
101306.6505
101304.3643
101300.9014
101295.6239
101286.5431
101279.2914
101274.161
101272.42
101273.7105
101278.1276
101284.3629
101292.0827
101299.2633
101305.5955
101310.1614
101313.6761
101315.8497
101316.5881
101315.7056
101313.6562
101310.5743
101307.0029
101301.8069
101294.5649
101283.8673
101275.2609
101269.248
101267.1486
101268.6346
101273.7973
101281.0667
101289.9174
101298.3141
101305.7591
101311.4897
101316.0637
101319.1165
101320.497
101319.9446
101317.6678
101313.8661
101309.2088
101302.5905
101293.8737
101282.1097
101272.7186
101266.2017
101263.9582
101265.5942
101271.2139
101279.0872
101288.5316
101297.6909
101305.8392
101312.4265
101317.8159
101321.5616
101323.4804
101323.2457
101320.8678
101316.5078
101310.98
101303.2084
101293.5262
101281.3001
101271.6108
101264.9951
101262.855
101264.6183
101270.4442
101278.453
101287.9456
101297.3228
101305.855
101312.9919
101318.8924
101323.1551
101325.4692
101325.5244
101323.1426
101318.4085
101312.2277
101303.6465
101293.536
101281.4215
101271.8973
101265.545
101263.6865
101265.5246
101271.1994
101278.8951
101287.9631
101297.1143
101305.6485
101313.0161
101319.1977
101323.769
101326.3999
101326.7092
101324.3953
101319.472
101312.8891
101303.8718
101293.8729
101282.3749
101273.4336
101267.6326
101266.1278
101267.9315
101273.1428
101280.1546
101288.4465
101296.9708
101305.177
101312.457
101318.6452
101323.3377
101326.1874
101326.7234
101324.538
101319.6315
101312.9189
101303.9191
101294.4534
101284.0131
101275.9962
101270.9245
101269.7724
101271.4364
101275.9024
101281.9702
101289.2004
101296.8212
101304.3928
101311.287
101317.2339
101321.8488
101324.8312
101325.572
101323.5886
101318.8982
101312.3706
101303.7888
101295.2393
101286.1504
101279.3138
101275.0207
101274.2022
101275.6038
101279.2597
101284.1974
101290.2509
101296.7698
101303.4616
101309.6724
101315.13
101319.4884
101322.449
101323.3709
101321.6463
101317.3586
101311.2935
101303.5201
101296.0913
101288.5649
101283.0227
101279.542
101278.9746
101280.1157
101282.9128
101286.7144
101291.5424
101296.8592
101302.44
101307.7409
101312.4789
101316.4179
101319.2308
101320.2788
101318.8567
101315.105
101309.7693
101303.1019
101297.0203
101291.0781
101286.8803
101284.1839
101283.8643
101284.702
101286.7466
101289.4608
101293.0807
101297.1524
101301.5157
101305.7343
101309.6237
101312.9797
101315.4944
101316.5468
101315.4024
101312.2936
101307.8969
101302.5651
101297.8859
101293.6313
101290.7565
101288.8313
101288.6769
101289.2904
101290.6244
101292.3824
101294.8513
101297.6941
101300.7545
101303.8212
101306.7182
101309.3392
101311.362
101312.2736
101311.4019
101309.0354
101305.7883
101301.8863
101298.7198
101296.1074
101294.3843
101293.159
101293.1304
101293.4829
101294.3421
101295.3227
101296.8139
101298.5277
101300.3598
101302.1672
101303.9352
101305.6094
101306.9267
101307.5533
101306.9517
101305.4486
101303.4998
101301.1409
101299.5633
101298.7962
101298.2244
101297.9742
101297.9168
101298.1104
101298.2581
101298.5578
101298.9334
101299.4583
101300.0761
101300.7419
101301.4128
101302.0662
101302.6575
101302.8108
101302.5636
101301.9028
101301.2507
101300.3676
101303.3425
101305.1786
101309.7147
101314.2466
101317.6733
101319.4948
101318.8289
101315.3603
101310.6713
101304.3391
101297.4784
101289.9875
101283.3589
101278.5253
101276.2508
101276.4073
101278.2541
101281.7195
101288.2976
101295.5448
101302.8768
101304.0859
101307.9035
101311.8622
101314.997
101316.7417
101316.2583
101313.2428
101309.1224
101303.5922
101297.4041
101290.595
101284.5697
101280.1974
101278.0566
101278.1992
101279.9821
101283.2002
101289.2531
101295.7362
101302.002
101302.0031
101304.4413
101307.3248
101309.922
101311.5272
101311.5324
101309.365
101306.6054
101302.4043
101297.8913
101292.3213