/*--------------------------------*- C++ -*----------------------------------*\
| =========                 |                                                 |
| \\      /  F ield         | OpenFOAM: The Open Source CFD Toolbox           |
|  \\    /   O peration     | Version:  5.x                                   |
|   \\  /    A nd           | Web:      www.OpenFOAM.org                      |
|    \\/     M anipulation  |                                                 |
\*---------------------------------------------------------------------------*/
FoamFile
{
    version     2.0;
    format      ascii;
    class       volScalarField;
    location    "2.4";
    object      rho;
}
// * * * * * * * * * * * * * * * * * * * * * * * * * * * * * * * * * * * * * //

dimensions      [1 -3 0 0 0 0 0];

internalField   nonuniform List<scalar> 
30538
(
1.282837229
1.289673577
1.289699453
1.289700001
1.289725805
1.289768384
1.289830923
1.289890866
1.289942949
1.289968366
1.289967408
1.289938183
1.289897892
1.289858854
1.289827724
1.28981242
1.28980971
1.28980501
1.289811857
1.291715183
1.282876722
1.289666677
1.289683725
1.289679032
1.289702894
1.289746479
1.289812264
1.289877361
1.289935505
1.289967773
1.289973831
1.289951361
1.289917156
1.289883099
1.289855508
1.289841529
1.289837555
1.289829366
1.289830716
1.291712983
1.282951694
1.289638569
1.289639148
1.289624798
1.289645039
1.289690448
1.289762469
1.289836873
1.289906229
1.289951238
1.289970207
1.28996051
1.28993768
1.289913075
1.289892278
1.289880772
1.289874457
1.289859729
1.289849714
1.291700856
1.283059478
1.289600872
1.289579609
1.289552588
1.28956795
1.289615715
1.289695846
1.289782265
1.289866421
1.289928158
1.289964288
1.289971777
1.289964316
1.289952638
1.289941189
1.289933262
1.28992375
1.289900339
1.289875259
1.291683933
1.283222511
1.289558816
1.289513029
1.289471995
1.28948199
1.28953199
1.289620935
1.289720189
1.289820992
1.289901003
1.289956536
1.289983232
1.28999341
1.289996485
1.289995923
1.289992198
1.289979239
1.289945953
1.289903933
1.291663959
1.283406251
1.289518176
1.289447869
1.289393348
1.289397753
1.289449581
1.289546256
1.289657756
1.289773765
1.289871855
1.289946473
1.289992316
1.290020097
1.290038669
1.290048938
1.290049833
1.290033511
1.289990529
1.289931928
1.291640141
1.283652306
1.289485057
1.289392783
1.289326974
1.289326209
1.289378988
1.28948142
1.289601825
1.28973057
1.289843238
1.28993411
1.289996978
1.290041037
1.290073515
1.290093883
1.290098897
1.29007968
1.29002793
1.289955528
1.291604359
1.283902072
1.289464361
1.289356069
1.289282631
1.289277395
1.28932955
1.289434141
1.289558677
1.289694543
1.289816591
1.289918811
1.289994426
1.290051251
1.290095696
1.290124537
1.290133077
1.290111643
1.290053222
1.289971003
1.291563356
1.284226855
1.289459769
1.289343888
1.289267238
1.289258686
1.28930842
1.289410615
1.289533706
1.289669348
1.289793341
1.289900617
1.289983849
1.290049529
1.290101809
1.290136382
1.290148017
1.290125357
1.290063126
1.289975701
1.291499275
1.284531186
1.289472061
1.289357672
1.289282656
1.289271793
1.289316742
1.289412144
1.289527691
1.289655111
1.289773997
1.289879831
1.289965469
1.290035538
1.290092309
1.290130128
1.290143053
1.290119444
1.290056764
1.289969384
1.291436423
1.284925243
1.289499314
1.289394324
1.289324875
1.289313217
1.289352013
1.289436432
1.289538565
1.289651553
1.289758563
1.289857077
1.289940218
1.290010774
1.290068534
1.290107322
1.290119954
1.290096413
1.290036406
1.28995376
1.291330783
1.285283318
1.289537539
1.289448604
1.289388587
1.28937753
1.28940872
1.289478544
1.289563002
1.289656312
1.289746994
1.289833428
1.289910131
1.289978016
1.290033925
1.290071648
1.290082583
1.290060056
1.290005333
1.289931363
1.2912417
1.285749675
1.289583353
1.289514185
1.289466609
1.289457272
1.289480425
1.289533152
1.289597084
1.289668104
1.28973921
1.289810839
1.289878061
1.28994076
1.289992862
1.290027608
1.290036594
1.290015726
1.28996793
1.289904879
1.291088872
1.286164467
1.289631212
1.289583127
1.289549335
1.289542514
1.289558099
1.289592964
1.289635823
1.289684264
1.289735422
1.289791069
1.28984715
1.289902612
1.289949569
1.289980279
1.289987378
1.289968576
1.289928348
1.289877184
1.2909777
1.286696289
1.289676341
1.289647964
1.289627278
1.289623322
1.289631827
1.289650667
1.289673839
1.289701748
1.289734659
1.28977523
1.28982009
1.28986735
1.289908116
1.289934344
1.289939782
1.289923233
1.289890563
1.289850593
1.290778003
1.287161428
1.289713766
1.289701463
1.289691694
1.289689966
1.289692859
1.289699093
1.289706739
1.289718162
1.289736366
1.289763785
1.28979871
1.289837587
1.289871562
1.289893086
1.289897108
1.28988297
1.289857191
1.289827217
1.290649142
1.287746128
1.289740748
1.289738782
1.289736651
1.289736515
1.289735942
1.289734019
1.289731708
1.289732175
1.289739968
1.289757542
1.289783253
1.289813831
1.289840675
1.28985741
1.28986032
1.289848878
1.289829442
1.289807556
1.290404522
1.28825358
1.289756731
1.289759888
1.289761764
1.289762593
1.289760443
1.289754771
1.289747828
1.289743126
1.28974503
1.289755457
1.289773015
1.289794966
1.289814339
1.28982632
1.289828335
1.289820008
1.289806491
1.289791568
1.290265546
1.288883091
1.289758823
1.289759999
1.289753935
1.289754482
1.289745882
1.289745148
1.289738088
1.289740942
1.289742794
1.289753612
1.289764171
1.28978062
1.289792471
1.289805556
1.289803655
1.289802744
1.289788705
1.289780668
1.28999992
1.289733144
1.286993796
1.287815958
1.285134651
1.286251007
1.284276167
1.285720414
1.284586501
1.286330042
1.285838101
1.28779528
1.287558901
1.289548776
1.289094944
1.290928468
1.289926366
1.291477679
1.289848555
1.291124917
1.289208728
1.281621463
1.289714971
1.289770793
1.289786436
1.289816012
1.289853654
1.289899963
1.289941144
1.289974407
1.289984865
1.289973644
1.289938794
1.28989463
1.289851074
1.289813432
1.289791697
1.289786616
1.289782664
1.289801745
1.292403757
1.281658645
1.289708275
1.289755141
1.289765284
1.289792776
1.289831353
1.289880995
1.28992742
1.289966779
1.289983869
1.289979245
1.289950784
1.289912297
1.28987344
1.289839353
1.28981922
1.289813196
1.289806129
1.28981973
1.292410925
1.281730066
1.289680354
1.289710665
1.289710662
1.289734322
1.289774592
1.28983052
1.28988645
1.28993723
1.289966538
1.289974325
1.289957815
1.289930017
1.289900093
1.289872847
1.289855739
1.28984792
1.289835016
1.289838044
1.292414769
1.281835607
1.289642816
1.289651112
1.289637826
1.289656306
1.28969868
1.289762974
1.289831329
1.289896901
1.289942561
1.289966801
1.289966382
1.289953012
1.289935434
1.289917521
1.289904606
1.289894415
1.289873763
1.289862688
1.292417796
1.281994608
1.289600595
1.289584071
1.289556021
1.28956862
1.289612973
1.289686567
1.289768412
1.289850457
1.289914229
1.289957218
1.289974855
1.289978077
1.289974832
1.289967816
1.289959668
1.289946803
1.289917376
1.289890376
1.292418586
1.282186866
1.289559162
1.289517587
1.289475141
1.289481693
1.289527533
1.289609756
1.28970435
1.289801942
1.289883699
1.289945193
1.289981275
1.290001274
1.290012796
1.290016879
1.290013754
1.289998253
1.289960101
1.289917248
1.292410905
1.282440792
1.289524352
1.289459812
1.289405173
1.289406083
1.289452578
1.289541587
1.289646091
1.289756698
1.28985331
1.289930761
1.289983508
1.290019254
1.290044468
1.290058666
1.290060059
1.290042181
1.289996131
1.289939811
1.292387357
1.282721513
1.289500825
1.289418358
1.289355287
1.289351318
1.289397336
1.289489819
1.289599725
1.289718146
1.2898246
1.289913637
1.289979242
1.290027596
1.290064447
1.290087296
1.290092821
1.290073071
1.290020812
1.289954522
1.292343944
1.283078353
1.2894921
1.289399094
1.289331841
1.289324472
1.289369035
1.289460637
1.28957042
1.289689821
1.289799164
1.289893892
1.289967694
1.290025138
1.290070061
1.290098843
1.290107627
1.29008702
1.290031342
1.289959456
1.29227167
1.283445908
1.289499191
1.289404037
1.289337106
1.28932774
1.289368646
1.289455245
1.289559112
1.289672202
1.289777679
1.28987208
1.289949202
1.290011692
1.290061594
1.290094262
1.29010476
1.290083579
1.290027305
1.289954542
1.292178366
1.283899895
1.289520474
1.289430735
1.289368341
1.289358514
1.289394308
1.289471727
1.289564088
1.289664885
1.289760312
1.289848786
1.289924543
1.289988465
1.290040118
1.29007435
1.290085365
1.29006447
1.290010551
1.289941211
1.292038253
1.284351724
1.28955266
1.289475006
1.289420578
1.289411543
1.289441422
1.28950618
1.289582901
1.289666298
1.289747111
1.289825075
1.289895582
1.289957925
1.290008723
1.290042856
1.29005282
1.290033133
1.289983845
1.289921382
1.291891652
1.284901369
1.289592543
1.289531255
1.289487564
1.289480414
1.289503632
1.289553333
1.28961176
1.28967509
1.289738207
1.289802675
1.289864849
1.289923126
1.289971309
1.290003463
1.290012175
1.289994103
1.289950944
1.289897446
1.291679001
1.285429453
1.289635309
1.28959214
1.2895607
1.289556028
1.289572641
1.289606403
1.289645809
1.289688667
1.289733533
1.289783261
1.289835357
1.289887595
1.289931865
1.289960971
1.289968347
1.289952063
1.289915553
1.289871882
1.291493697
1.286060724
1.289676536
1.289650542
1.289630924
1.289628754
1.28963904
1.28965831
1.289679864
1.289704044
1.289732241
1.289768094
1.289809801
1.289854937
1.289894214
1.289919724
1.289925801
1.289911367
1.289881545
1.289847118
1.291219149
1.286647752
1.289711742
1.289699746
1.289690054
1.289689659
1.289694602
1.289702272
1.289709685
1.289719043
1.289733809
1.289757516
1.289790093
1.289827737
1.289861163
1.289882679
1.289887463
1.289875039
1.289851338
1.289825179
1.291010557
1.287339944
1.289738053
1.289735114
1.289732317
1.28973303
1.289734287
1.289734241
1.2897326
1.289732279
1.289737815
1.289752565
1.289776614
1.289806448
1.289833317
1.289850452
1.289854059
1.289843988
1.28982607
1.289806663
1.290687148
1.28797108
1.289754592
1.289756343
1.289757186
1.289758389
1.289757586
1.289753727
1.289747855
1.28974314
1.289743651
1.289752075
1.28976852
1.289790162
1.289809832
1.289822277
1.289824852
1.289817463
1.289804983
1.289791452
1.29047095
1.28870985
1.289757776
1.289756394
1.289749082
1.289747945
1.289740827
1.289740656
1.289736094
1.289739623
1.289741868
1.289752075
1.289762189
1.289779698
1.289791973
1.289808028
1.28980522
1.289806196
1.289790055
1.28978304
1.290122769
1.289441856
1.286772813
1.287123532
1.284537765
1.285239581
1.283495101
1.284657364
1.283877976
1.285554294
1.285412043
1.287508047
1.287477597
1.289764317
1.28928517
1.291516896
1.290186051
1.29217463
1.289942204
1.291670187
1.289045616
1.280143237
1.289766063
1.289860184
1.289893524
1.289924915
1.289952201
1.289974961
1.289988109
1.289995605
1.289986665
1.289965039
1.289925934
1.289879239
1.289830447
1.289783916
1.289752277
1.289743862
1.289742212
1.289776725
1.294006821
1.280178189
1.289759989
1.289845011
1.289872691
1.289901726
1.289929844
1.289956101
1.289974689
1.289988149
1.289985607
1.289970038
1.289936746
1.289895075
1.289850638
1.289807645
1.28977796
1.289769035
1.289764685
1.289794701
1.294024317
1.280239801
1.289732943
1.289801373
1.289818464
1.289843365
1.289873085
1.289905815
1.289934213
1.289959218
1.289968363
1.289964475
1.289941648
1.289909503
1.289873203
1.289837138
1.289811037
1.289801063
1.289791705
1.289812127
1.294057772
1.280341144
1.289696277
1.289742582
1.289745687
1.289764988
1.289796742
1.289837878
1.289879364
1.289919093
1.289944454
1.289955407
1.289947292
1.289927963
1.289903191
1.289876422
1.289855426
1.289844096
1.2898281
1.289835625
1.29408463
1.280495893
1.289654414
1.289675701
1.289663113
1.28967617
1.289709888
1.28976045
1.289816274
1.289873301
1.289916213
1.289945231
1.289952752
1.289948555
1.289936981
1.289921163
1.289905833
1.289892928
1.289869322
1.289862175
1.294121297
1.28069043
1.289612276
1.289607997
1.289579808
1.289586304
1.289621528
1.289680959
1.289751117
1.289824093
1.289885054
1.289931158
1.289956137
1.289967329
1.289969715
1.28996501
1.28995572
1.28994115
1.289909977
1.28988795
1.294131872
1.28096572
1.28957533
1.289546927
1.289505228
1.289505772
1.28954156
1.289609422
1.289691256
1.289778454
1.289853908
1.289915785
1.28995622
1.289982343
1.289997759
1.290003485
1.289999125
1.289982955
1.289944835
1.289909727
1.294116561
1.281263186
1.289547525
1.28949918
1.289447468
1.289443004
1.289478829
1.289552294
1.289641946
1.289737691
1.289824058
1.289897561
1.289950896
1.289988962
1.290015697
1.290030128
1.290030968
1.290013443
1.28996971
1.289924471
1.294068478
1.281681286
1.289532963
1.289470149
1.28941327
1.289405416
1.289441088
1.289516719
1.289608488
1.289707108
1.289797409
1.28987758
1.289939589
1.289987079
1.290022166
1.290043064
1.290047331
1.290029118
1.289982252
1.289930696
1.29394901
1.282082533
1.289532095
1.28946235
1.289404605
1.289395351
1.289429169
1.28950283
1.28959117
1.289685805
1.289774702
1.289856056
1.289922796
1.289975934
1.290016818
1.290042194
1.290048955
1.290030595
1.289982768
1.28992867
1.293809603
1.282653997
1.28954457
1.289474873
1.289419837
1.289411129
1.289442041
1.289509653
1.289589218
1.289674807
1.289756167
1.289833973
1.289900913
1.289956871
1.290000472
1.290028539
1.290036467
1.290018688
1.289972372
1.289919243
1.293556481
1.283157024
1.289567378
1.289504312
1.289455645
1.289448557
1.289476036
1.289533925
1.289600922
1.289672232
1.289741939
1.289811531
1.28987523
1.289931043
1.289975289
1.290004377
1.290012612
1.289996049
1.289953253
1.289904178
1.293326361
1.283873188
1.289598677
1.289546314
1.289506504
1.289501922
1.289525144
1.289571134
1.289622907
1.289677495
1.289732242
1.289790516
1.289847672
1.289901187
1.289944362
1.289973011
1.289981017
1.28996605
1.289928057
1.289884911
1.292939641
1.284465859
1.289633498
1.289594977
1.289565484
1.289563535
1.289582026
1.289615054
1.289650652
1.289687676
1.289726772
1.289772108
1.289820991
1.289870114
1.289911149
1.289938185
1.289945788
1.289932399
1.289899713
1.289863545
1.292644644
1.285299788
1.289669199
1.289643972
1.289624511
1.289624895
1.289638269
1.289659277
1.289679529
1.289700511
1.289724979
1.28975787
1.28979785
1.289841423
1.289879043
1.289903767
1.289910732
1.289898844
1.28987161
1.289842022
1.292155507
1.285959134
1.289700944
1.289687321
1.289676402
1.28967806
1.28968662
1.28969743
1.289705547
1.289713749
1.289726432
1.289748573
1.289780195
1.289817282
1.289850317
1.289872024
1.289878074
1.289867973
1.289846048
1.289822517
1.291826954
1.286868966
1.289726941
1.289720627
1.28971575
1.289717816
1.289722474
1.289726059
1.289726162
1.289726273
1.289730889
1.289744805
1.289768539
1.28979847
1.289825659
1.289843563
1.289848601
1.289840486
1.289823687
1.289805396
1.291276911
1.287571114
1.289744958
1.289743299
1.289741713
1.289743734
1.289745535
1.289745031
1.289741135
1.289737577
1.289737828
1.289745783
1.289762272
1.289784308
1.289804635
1.289818024
1.289821867
1.289815988
1.289804149
1.289790856
1.290940486
1.28853014
1.289748894
1.289746937
1.289731562
1.289735476
1.289724371
1.289732565
1.289726976
1.289735514
1.289737347
1.289748458
1.289758825
1.289777397
1.289792427
1.289808198
1.289808844
1.289807513
1.289793065
1.289782934
1.290361694
1.289864259
1.285657187
1.287093567
1.282989973
1.28485961
1.281918954
1.284224665
1.282769568
1.285353335
1.285028445
1.28768862
1.287878035
1.290338747
1.290336772
1.292317396
1.29154807
1.292839682
1.291087843
1.291837117
1.289714994
1.27626462
1.289773897
1.289916516
1.289960477
1.289989255
1.290006972
1.290008023
1.28999715
1.289983444
1.289961555
1.289935011
1.289895449
1.289847117
1.289795004
1.289743722
1.289707622
1.289697248
1.289699683
1.289756738
1.29677843
1.276274838
1.289768808
1.28990245
1.28994076
1.289967175
1.28998537
1.289990035
1.289984575
1.289976717
1.289960803
1.289939731
1.28990544
1.289861984
1.28981418
1.289766254
1.289732022
1.289721286
1.289721337
1.289775308
1.296839559
1.276287177
1.289743459
1.289860789
1.289888479
1.28991065
1.289929848
1.289941135
1.289945416
1.289948899
1.289944267
1.289933731
1.28990916
1.289874693
1.289834792
1.289793546
1.289762834
1.289751325
1.289746886
1.289791909
1.296951262
1.276333245
1.289709103
1.289804242
1.289817765
1.289834244
1.289854945
1.289875048
1.28989256
1.289911054
1.289921959
1.289925384
1.289913976
1.289891614
1.289862585
1.289830247
1.289804392
1.28979193
1.289781462
1.289814114
1.297083484
1.276425133
1.289669704
1.289739096
1.289736555
1.289746544
1.289768841
1.28979867
1.289831265
1.289867335
1.289895664
1.289915536
1.289918938
1.28991056
1.289894056
1.289872216
1.289851969
1.289838376
1.289820952
1.289839129
1.297228503
1.276594463
1.289629567
1.289671979
1.289653266
1.289656479
1.289680235
1.289719764
1.289767568
1.289820901
1.289867053
1.289903408
1.28992239
1.289928479
1.289925107
1.289913975
1.289899678
1.289885008
1.289860521
1.289863578
1.297333213
1.276860229
1.289592953
1.289609796
1.289576535
1.28957371
1.289598496
1.289646868
1.289708126
1.289777068
1.289838404
1.28988941
1.28992315
1.289943296
1.289952701
1.289951828
1.289942603
1.289926848
1.28989576
1.289885126
1.29738454
1.277228721
1.289563583
1.289558526
1.28951378
1.28950625
1.289531974
1.289587079
1.289658664
1.289738022
1.289810976
1.289873746
1.289919674
1.289951675
1.289971917
1.289980017
1.289976312
1.289959836
1.28992327
1.289901344
1.297343292
1.27773308
1.289545483
1.289522752
1.289471713
1.289461121
1.289487544
1.289546968
1.28962371
1.28970789
1.289786833
1.289857085
1.289912049
1.289953323
1.289982132
1.289997289
1.28999758
1.28998054
1.289940505
1.289910402
1.297187446
1.278332935
1.289539519
1.289505067
1.289451878
1.289440169
1.28946626
1.28952672
1.289603249
1.289686595
1.289766499
1.289839732
1.289900234
1.28994792
1.289982955
1.290003225
1.290006591
1.289989612
1.289947865
1.28991224
1.296921362
1.279103886
1.289545758
1.289504892
1.289453477
1.289442814
1.289468126
1.28952595
1.289597009
1.289674235
1.289749953
1.289822113
1.289884557
1.289935798
1.289974585
1.289998218
1.290003608
1.28998721
1.289945743
1.289907812
1.296509767
1.279926751
1.289562052
1.289520709
1.289474336
1.289466277
1.289490383
1.28954205
1.289603596
1.289670019
1.289737094
1.289804125
1.289865157
1.289917571
1.289958076
1.28998379
1.289990387
1.289975207
1.289935694
1.289897526
1.296032385
1.280933484
1.289586788
1.289549085
1.289510012
1.289505446
1.289527548
1.289570689
1.28961999
1.289672834
1.289728029
1.289786495
1.289843151
1.289894657
1.289935329
1.289961835
1.28996929
1.289955587
1.289919375
1.289883078
1.295386428
1.281925159
1.289616476
1.289585767
1.289555348
1.289554146
1.289573425
1.289606637
1.289642312
1.289680379
1.289722391
1.289770401
1.289820709
1.289869371
1.289909006
1.289935176
1.28994317
1.289931082
1.289898807
1.289865565
1.294768201
1.283108562
1.28964886
1.289625694
1.289603755
1.28960518
1.289620784
1.289644255
1.289666713
1.289690848
1.289720081
1.289757328
1.289800198
1.289844482
1.289881787
1.289906634
1.28991484
1.289904358
1.289876564
1.289847367
1.293960389
1.28419368
1.289679615
1.289663906
1.289649363
1.289651991
1.289663659
1.289678392
1.289689936
1.289702714
1.289721188
1.289748461
1.289783545
1.289822046
1.289855534
1.289878096
1.289886075
1.289877424
1.289854368
1.289829334
1.293295573
1.285477315
1.289707229
1.289696633
1.289687556
1.289690321
1.289698233
1.289706264
1.289710159
1.28971528
1.289725622
1.289744609
1.289771593
1.289803108
1.289831216
1.289850402
1.289857649
1.289850912
1.289832866
1.289812273
1.292400362
1.286596994
1.289729282
1.289722729
1.28971729
1.289719606
1.289724276
1.289727797
1.289727449
1.289728253
1.289733244
1.289745389
1.289764503
1.289787915
1.289809234
1.289824062
1.289829853
1.289825191
1.289812156
1.289796389
1.291753632
1.287932967
1.289736584
1.289725086
1.289703879
1.28970122
1.28969374
1.289702638
1.289706335
1.289720639
1.289730637
1.289746771
1.289760183
1.289782936
1.289799429
1.289819374
1.289818962
1.289819236
1.289800166
1.289787657
1.290823284
1.288924165
1.284827687
1.284800629
1.280890445
1.281429429
1.279201777
1.280585355
1.280350439
1.282735318
1.283645713
1.286800732
1.287780242
1.291254708
1.291247552
1.294594934
1.292739588
1.295484085
1.29164057
1.293784439
1.289219424
1.272579275
1.289744481
1.289925769
1.289970369
1.289993694
1.290002747
1.289991502
1.289965061
1.289940326
1.289911069
1.289883964
1.289843483
1.28979441
1.289741555
1.289692442
1.289662778
1.289654408
1.289662711
1.289745005
1.30106817
1.272560768
1.289740643
1.289913315
1.289952458
1.289973417
1.289982874
1.289974617
1.28995345
1.289933932
1.289910681
1.289888276
1.2898535
1.289809333
1.289760987
1.289714971
1.289686276
1.289677587
1.289683975
1.28976462
1.301181076
1.272497971
1.289717104
1.289874478
1.289903358
1.289920154
1.289930361
1.289928502
1.28991673
1.289908998
1.289896034
1.289884183
1.28985805
1.289823127
1.289782446
1.289742773
1.289715862
1.289706326
1.289708663
1.289779915
1.301440165
1.272474908
1.289685595
1.289821255
1.289836317
1.289847276
1.289858748
1.289864565
1.289866467
1.289872535
1.289875735
1.289876058
1.289863918
1.289840988
1.289811492
1.289779743
1.289756228
1.28974539
1.289741978
1.28979996
1.301701568
1.272479325
1.289648998
1.289759381
1.289758595
1.289763109
1.289775566
1.289792012
1.28980936
1.289834957
1.289853841
1.289871582
1.289871962
1.289863346
1.289845295
1.289823453
1.289803557
1.289790856
1.289780277
1.289822825
1.302041018
1.272593054
1.289611775
1.289694777
1.289677715
1.289675274
1.289689053
1.289715185
1.28974953
1.289791178
1.289830523
1.289861167
1.289878134
1.289882974
1.289879197
1.289867125
1.289852033
1.289837418
1.289819416
1.289845674
1.30226582
1.272843355
1.289577541
1.289633941
1.289602004
1.289593697
1.289608652
1.289645095
1.2896942
1.289755458
1.289808138
1.289856819
1.289884774
1.28990436
1.289911522
1.289909422
1.289897985
1.289881556
1.289856047
1.289866684
1.302417246
1.273213032
1.289549088
1.289582062
1.289538101
1.289524978
1.289541775
1.289585572
1.28964731
1.289718949
1.28978774
1.289845514
1.289887232
1.289917777
1.289936679
1.289942887
1.289936704
1.28991895
1.289887269
1.28988375
1.302400243
1.273838086
1.28953134
1.289543896
1.289492682
1.28947691
1.289495055
1.289544622
1.289613602
1.289694521
1.289769817
1.289836726
1.289887523
1.28992799
1.289954991
1.289968135
1.289965421
1.289947016
1.28991054
1.289895353
1.302143826
1.27452471
1.289523122
1.289521312
1.289466679
1.289449876
1.289469141
1.289520947
1.289592924
1.289675504
1.289755278
1.289827066
1.289884987
1.289931915
1.289965472
1.289983452
1.289984083
1.289965485
1.289926031
1.289901332
1.301755873
1.275585884
1.289527428
1.289513501
1.289459592
1.289444302
1.289464402
1.289515697
1.289585757
1.289666002
1.289744283
1.289817417
1.289879051
1.28993034
1.289967955
1.289989794
1.289992691
1.289974485
1.289933673
1.289902359
1.301006088
1.276574432
1.289539786
1.289519891
1.289469997
1.289457967
1.289478293
1.289526148
1.289589977
1.289662675
1.289735916
1.289806683
1.289869203
1.289922213
1.289962489
1.289986781
1.289991677
1.289974371
1.289933788
1.289898064
1.300264685
1.278030088
1.289562629
1.289538566
1.289494802
1.289487003
1.28950655
1.289548926
1.289603038
1.289665249
1.289729664
1.289795042
1.289855172
1.289908265
1.289949239
1.289975299
1.289981763
1.28996591
1.289926901
1.289889649
1.299077486
1.279236365
1.289589228
1.289566503
1.289530258
1.289526266
1.289544208
1.289579231
1.289621795
1.289671395
1.289725348
1.289782708
1.289838494
1.289889296
1.289929753
1.289956364
1.289964307
1.289950324
1.289914095
1.289877026
1.29811249
1.280971431
1.289621949
1.289600108
1.289571358
1.289570336
1.289585627
1.289612888
1.289643451
1.289680624
1.289723269
1.28977152
1.289820833
1.289867684
1.289905901
1.289932036
1.289941093
1.289929313
1.289896896
1.289862082
1.296647233
1.282289923
1.289652905
1.289635176
1.289613438
1.289613951
1.289626217
1.289645857
1.289665883
1.289691866
1.289723868
1.289762335
1.289804042
1.289844915
1.289879523
1.289903919
1.289913566
1.289904152
1.289876367
1.289844775
1.295617695
1.284152692
1.289684212
1.289668724
1.289652819
1.289654162
1.289663259
1.289676454
1.289688154
1.289705047
1.289727544
1.289756624
1.289789585
1.289823102
1.289852406
1.28987383
1.289883104
1.289875933
1.289853394
1.289826619
1.294044878
1.285507988
1.289710801
1.289699342
1.289688317
1.28968971
1.289695857
1.289703974
1.289710067
1.289720037
1.289734465
1.289754504
1.289778252
1.289803148
1.289825667
1.289842633
1.289850408
1.289845261
1.289828555
1.289807597
1.293055694
1.287415967
1.289715396
1.28970596
1.28965827
1.289670672
1.289643996
1.289676896
1.289678451
1.289712735
1.289728923
1.289752819
1.28977025
1.289796048
1.28981744
1.289835899
1.289840116
1.289834579
1.289814931
1.289795257
1.291467843
1.289715822
1.282152795
1.284386297
1.276969943
1.280041037
1.275121872
1.279061192
1.277518587
1.281941781
1.282674424
1.287104655
1.288769742
1.292710364
1.29397773
1.296841971
1.29642638
1.297477746
1.294666835
1.294380737
1.290881142
1.265135696
1.289628171
1.289892957
1.289933317
1.289956761
1.289962872
1.289948489
1.289919598
1.289888318
1.289852801
1.289816599
1.289768203
1.289716025
1.289667042
1.289628678
1.289613173
1.289613929
1.289629963
1.289739105
1.307926905
1.265022907
1.289624846
1.289882332
1.289917944
1.289938766
1.289944614
1.289933
1.289908783
1.289883002
1.28985329
1.289822041
1.28977981
1.289732857
1.289688071
1.289652373
1.289636603
1.289636769
1.289651118
1.289760775
1.308228068
1.264758216
1.289601653
1.289846781
1.289872868
1.28988877
1.289894515
1.289888047
1.289872613
1.289857638
1.289839058
1.289818326
1.289786827
1.289749341
1.289712213
1.289681282
1.289665772
1.289664567
1.289675273
1.28977313
1.30882734
1.264516852
1.289571298
1.2897978
1.289810893
1.289820625
1.289826246
1.289827277
1.289824733
1.28982473
1.289821754
1.289815135
1.289797074
1.28977232
1.289745882
1.289721391
1.289706507
1.289702941
1.289707887
1.28978923
1.309556478
1.264241819
1.289535647
1.289740422
1.28973816
1.289740674
1.28974735
1.289757686
1.289769901
1.289787862
1.28980272
1.289812831
1.28981079
1.289800627
1.28978635
1.289769477
1.289755506
1.2897481
1.289745497
1.289806822
1.310393612
1.264181882
1.289501077
1.28968042
1.289662112
1.289657645
1.28966578
1.289686376
1.289714722
1.289751259
1.289784168
1.289812339
1.289826223
1.289831139
1.289829069
1.28982021
1.289807752
1.289796122
1.289784898
1.289824688
1.311056655
1.26427236
1.2894695
1.289623553
1.28959024
1.289579387
1.289589143
1.289620403
1.289663875
1.28971865
1.289769913
1.289816304
1.289841822
1.28986108
1.289870858
1.289870253
1.289859313
1.289843538
1.289823591
1.28984167
1.311550841
1.26469327
1.289445928
1.289574711
1.28952912
1.289513291
1.289524973
1.289565021
1.289621584
1.28969162
1.289756734
1.28981416
1.289855566
1.289887407
1.289907117
1.289913897
1.289905886
1.289887274
1.289859185
1.289857357
1.311655858
1.265424973
1.28943369
1.289538244
1.289484563
1.289465489
1.289478946
1.289525765
1.289591704
1.289671985
1.289748132
1.28981565
1.289867612
1.289909058
1.289936741
1.289949321
1.289944317
1.289923642
1.289889053
1.289870498
1.311366579
1.266483611
1.289433328
1.289515298
1.289456943
1.289436561
1.28945138
1.289502341
1.289573756
1.289659423
1.289742485
1.289816377
1.289876109
1.289924943
1.289958903
1.28997636
1.289974237
1.289952642
1.289913031
1.289880613
1.310641207
1.267956526
1.289445576
1.289505377
1.289445999
1.289426571
1.289442537
1.289495365
1.289568015
1.28965411
1.289739153
1.28981651
1.289881251
1.289934725
1.289973361
1.289994385
1.2899949
1.28997328
1.289930298
1.289888496
1.309420676
1.269628727
1.289467418
1.28950811
1.289450975
1.289434119
1.289450763
1.289502227
1.289572037
1.289654271
1.289737266
1.289814629
1.28988148
1.28993751
1.289978937
1.29000283
1.290005644
1.289984644
1.28993996
1.289891708
1.307897872
1.271745233
1.289499644
1.289522185
1.289469903
1.289456267
1.2894726
1.289519865
1.289583467
1.28965866
1.289735963
1.289810358
1.289876407
1.289932516
1.289975042
1.290000909
1.290005762
1.289985943
1.289941425
1.289892338
1.305881531
1.273834971
1.289535749
1.289545546
1.289499774
1.289489327
1.289504403
1.289544902
1.289599935
1.289665495
1.289734604
1.289803256
1.28986579
1.28991973
1.289961553
1.289988616
1.289995323
1.289977342
1.289934785
1.289886116
1.303886003
1.276362584
1.289577458
1.289575731
1.289536934
1.289529508
1.289542203
1.289575354
1.289620145
1.289675022
1.289734142
1.289794816
1.28985115
1.28990065
1.289940165
1.289967014
1.289975366
1.289959728
1.28992083
1.289876357
1.301438331
1.278599108
1.289616785
1.289609426
1.289577939
1.289572783
1.289583117
1.289608478
1.289642965
1.289686737
1.289734954
1.289785557
1.28983364
1.289876623
1.289912342
1.289937851
1.28994733
1.289934437
1.289900395
1.289860217
1.299443078
1.281279956
1.289656795
1.289644463
1.289620054
1.289617161
1.289624752
1.28964329
1.289667901
1.289700702
1.289737627
1.289777184
1.289815444
1.289850713
1.289881155
1.289903962
1.289913502
1.289903126
1.289874912
1.289841844
1.296897223
1.283508468
1.289691515
1.289679532
1.289661792
1.289660368
1.289665711
1.289677971
1.289694041
1.289716618
1.28974249
1.289770288
1.289798095
1.289824349
1.289848114
1.289866437
1.289874713
1.289866817
1.289845361
1.289819531
1.295110049
1.286201906
1.289694728
1.289669351
1.289599887
1.289595612
1.289565433
1.289598828
1.289628031
1.289683268
1.289723721
1.289759826
1.289783857
1.289816172
1.289839534
1.289856796
1.289861661
1.289846917
1.289827852
1.289800359
1.292591398
1.288038878
1.280222596
1.279917751
1.272345168
1.27305629
1.269176953
1.271479709
1.272463684
1.276792495
1.280115805
1.285664681
1.289095776
1.295111851
1.29669811
1.302322801
1.299924696
1.30371666
1.296484875
1.298737871
1.290125302
1.257664372
1.289469935
1.289841633
1.289884282
1.289915472
1.289932039
1.289925699
1.289894359
1.289851919
1.289794437
1.289733133
1.289664205
1.289604228
1.289560454
1.289539755
1.289541284
1.289557973
1.289589291
1.289714061
1.317113554
1.257380975
1.289466078
1.289833178
1.289871003
1.289899428
1.289915211
1.28991087
1.289883479
1.289846154
1.289795955
1.289739919
1.289678152
1.289623468
1.289583877
1.289564469
1.289565726
1.289581854
1.289610985
1.289737893
1.317660814
1.256783623
1.289439756
1.289801717
1.289829888
1.289853429
1.289867952
1.289868034
1.289848312
1.289823333
1.28978519
1.289744338