/*--------------------------------*- C++ -*----------------------------------*\
| =========                 |                                                 |
| \\      /  F ield         | OpenFOAM: The Open Source CFD Toolbox           |
|  \\    /   O peration     | Version:  5.x                                   |
|   \\  /    A nd           | Web:      www.OpenFOAM.org                      |
|    \\/     M anipulation  |                                                 |
\*---------------------------------------------------------------------------*/
FoamFile
{
    version     2.0;
    format      ascii;
    class       volScalarField;
    location    "2.4";
    object      T;
}
// * * * * * * * * * * * * * * * * * * * * * * * * * * * * * * * * * * * * * //

dimensions      [0 0 0 1 0 0 0];

internalField   nonuniform List<scalar> 
30538
(
274.4696729
273.0064536
272.9976039
272.9976974
272.9998886
273.0035158
273.0088418
273.0139757
273.0184459
273.0207252
273.0205978
273.0180913
273.0145752
273.0112265
273.0085658
273.0072915
273.0070782
273.0066558
273.0020727
272.5932395
274.4595046
273.0032887
272.9938351
272.9934768
272.9955014
272.9992248
273.0048339
273.0104045
273.0153964
273.0182428
273.0187036
273.0168128
273.0138185
273.0108898
273.0085336
273.0073691
273.0070424
273.0063173
273.0011899
272.5947948
274.4402406
273.0005766
272.9900197
272.988841
272.9905627
272.9944419
273.0005792
273.0069429
273.0129395
273.0167828
273.018373
273.0175784
273.0155963
273.0134573
273.0116807
273.0107297
273.0101967
273.0089149
273.0030128
272.5994226
274.4128687
272.9969577
272.9849413
272.9826843
272.9839914
272.9880542
272.9948831
273.0023093
273.0095347
273.0147763
273.01783
273.0185111
273.0178852
273.0168683
273.015864
273.0152142
273.0144265
273.0124008
273.0054594
272.6058033
274.3731912
272.9928584
272.9792533
272.9757993
272.9766215
272.980882
272.9884786
272.9970562
273.0056353
273.0124235
273.0171193
273.0194517
273.0203633
273.0206565
273.020555
273.0202499
273.0191546
273.0163082
273.0082176
272.6132151
274.3292585
272.9888283
272.9736607
272.9690477
272.9694025
272.9738285
272.9821416
272.9916754
273.0015837
273.0099404
273.0162259
273.0202125
273.0226532
273.0242366
273.0251173
273.0251767
273.0237908
273.0201112
273.0109247
272.621384
274.2728499
272.9853618
272.968942
272.9633659
272.9632787
272.9677863
272.9766042
272.9868753
272.9978842
273.0074958
273.0151498
273.0206266
273.0244418
273.0272136
273.0289474
273.0293792
273.0277348
273.0233079
273.0132923
272.631576
274.2171074
272.9829832
272.9657998
272.9595731
272.9591022
272.9635588
272.9725531
272.9831837
272.9947993
273.0052171
273.0138372
273.0204178
273.0253124
273.0291096
273.0315597
273.0323116
273.0304638
273.0254693
273.0149473
272.6419296
274.1471406
272.981906
272.9647582
272.958256
272.9575033
272.9617614
272.9705342
272.9810478
272.9926405
273.0032312
273.0122895
273.0195162
273.0251626
273.0296318
273.032569
273.0335887
273.0316367
273.0263155
273.0156751
272.6558937
274.0833456
272.9822869
272.9659384
272.9595711
272.9586258
272.9624787
272.9706566
272.980531
272.9914194
273.0015788
273.0105237
273.0179456
273.0239619
273.0288169
273.0320351
273.0331614
273.0311297
273.0257713
273.0154198
272.6683381
274.0020094
272.9838244
272.9690769
272.9631786
272.9621687
272.9654946
272.9727253
272.9814567
272.9911136
273.0002609
273.0085859
273.0157868
273.0218401
273.0267806
273.0300847
273.0311824
273.0291573
273.0240291
273.0143545
272.6887774
273.9295778
272.9863447
272.9737219
272.9686233
272.9676685
272.9703429
272.9763202
272.9835416
272.9915187
272.9992709
273.0065729
273.013212
273.0190331
273.0238162
273.0270323
273.0279819
273.0260439
273.0213699
273.0127001
272.7050447
273.8348649
272.9894233
272.9793303
272.975292
272.9744859
272.9764737
272.9809833
272.9864527
272.9925257
272.9986037
273.0046499
273.0104682
273.0158426
273.0203001
273.0232642
273.024044
273.0222491
273.018168
273.0107348
272.734453
273.7513557
272.9927491
272.9852264
272.982363
272.9817737
272.9831151
272.9860922
272.9897623
272.9939049
272.9982748
273.0029696
273.0078238
273.0125768
273.0165932
273.0192149
273.0198307
273.018216
273.0147817
273.0086678
272.7549778
273.6426828
272.9957924
272.9907749
272.9890274
272.9886846
272.9894204
272.9910244
272.9930122
272.9953998
272.9982042
273.0016267
273.0055081
273.0095589
273.0130453
273.0152853
273.0157558
273.0143401
273.0115487
273.0067509
272.7944029
273.5474843
272.9983008
272.9953539
272.9945354
272.994385
272.9946404
272.9951665
272.9958256
272.9968046
272.9983451
273.000661
273.0036816
273.0070135
273.0099184
273.0117578
273.0121028
273.010901
273.0086963
273.0050905
272.8192022
273.4259177
272.9999278
272.9985499
272.9983813
272.998369
272.9983247
272.9981543
272.9979597
272.9980011
272.998651
273.0001396
273.0023618
273.0049837
273.0072782
273.0087088
273.0089569
273.0079848
273.0063213
273.0037798
272.868929
273.3197342
273.0007516
273.000348
273.0005156
273.0005848
273.0004033
272.9999128
272.9993227
272.9989226
272.9990766
272.9999626
273.0014783
273.0033626
273.0050176
273.0060464
273.0062163
273.0055106
273.004355
273.0027016
272.8967105
273.186781
273.0018563
273.002442
273.0045612
273.0047094
273.0059258
273.0044438
273.0040148
273.0019368
273.0015131
273.0008914
273.001744
273.0020884
273.0030318
273.0023613
273.0030929
273.0017379
273.0023648
273.001259
272.9516244
273.0066447
273.5881001
273.4139271
273.9846257
273.747
274.1675735
273.8589233
274.0997375
273.7276188
273.8322325
273.4166934
273.4679447
273.0473188
273.1445912
272.757344
272.9693291
272.6409164
272.9844791
272.7137035
273.11799
274.735035
273.0112607
273.0030371
273.004377
273.0069042
273.0101173
273.0140837
273.0176192
273.0204542
273.0213593
273.0203788
273.0174082
273.0136241
273.009898
273.0066599
273.0048199
273.0044001
273.004057
272.9983054
272.4453072
274.725375
273.0081056
272.999302
273.0001643
273.0025169
273.0058187
273.0100576
273.0140363
273.0174045
273.0188734
273.0184622
273.0160414
273.0127406
273.0094113
273.0064824
273.0047785
273.0042674
273.0036522
272.9974869
272.4448544
274.7068752
273.0054089
272.9954954
272.9954895
272.9975144
273.0009599
273.0057374
273.0105287
273.0148746
273.0173883
273.0180381
273.0166402
273.0142527
273.0116862
273.0093434
273.0078949
273.0072323
273.0061223
272.9992547
272.4460542
274.6799585
273.0017874
272.990403
272.989262
272.9908422
272.994469
272.9999627
273.0058125
273.0114254
273.0153361
273.0173929
273.0173726
273.0162207
273.0147083
273.0131669
273.0120715
273.0112074
273.0094399
273.0016529
272.4481376
274.6410418
272.9976429
272.9846671
272.9822652
272.9833399
272.9871376
272.9934295
273.0004283
273.0074516
273.0129105
273.0165708
273.0180945
273.0183641
273.0180757
273.0174679
273.0167769
273.0156839
273.0131722
273.0043893
272.4510615
274.5950914
272.9934902
272.9789768
272.9753469
272.9759025
272.9798281
272.9868619
272.994949
273.0032986
273.0102968
273.0155434
273.0186397
273.0203497
273.0213208
273.0216634
273.021399
273.0200823
273.0168266
273.0071176
272.4557332
274.5366678
272.9898013
272.9740291
272.9693608
272.9694326
272.9734143
272.9810312
272.9899653
272.9994261
273.0076943
273.0143105
273.0188274
273.021885
273.0240283
273.0252341
273.0253571
273.0238376
273.0199084
273.0094896
272.4633232
274.4738181
272.9870657
272.97048
272.965094
272.964747
272.9686863
272.9766004
272.9860005
272.9961267
273.0052393
273.0128464
273.0184602
273.0225954
273.0257411
273.0276868
273.0281582
273.0264762
273.0220207
273.0112317
272.47425
274.3963454
272.9855147
272.9688286
272.9630872
272.9624479
272.966266
272.9741043
272.9834948
272.9937025
273.0030682
273.0111569
273.0174734
273.0223848
273.026226
273.0286755
273.0294265
273.0276716
273.0229238
273.0121258
272.4901298
274.3182669
272.9852949
272.9692497
272.9635372
272.9627321
272.9662361
272.9736435
272.9825289
272.9921948
273.0012314
273.0092932
273.0158918
273.0212321
273.0255057
273.0282863
273.0291831
273.0273786
273.022581
273.0121414
272.5092841
274.2232744
272.9861654
272.9715344
272.9662103
272.965366
272.9684302
272.9750529
272.9829534
272.9915707
272.9997443
273.0073023
273.013783
273.0192455
273.0236703
273.0265874
273.0275287
273.0257449
273.0211472
273.0114039
272.5373649
274.1299629
272.9879716
272.9753234
272.9706801
272.9699043
272.9724603
272.9780017
272.9845617
272.9916924
272.9986138
273.0052779
273.0113054
273.0166362
273.0209867
273.023896
273.0247478
273.0230652
273.018862
273.0101393
272.5661389
274.0166225
272.9903714
272.9801346
272.9764103
272.9757975
272.9777829
272.9820354
272.9870289
272.9924459
272.9978509
273.0033637
273.0086767
273.0136626
273.0177878
273.0205301
273.0212751
273.0197261
273.016047
273.0085452
272.6084813
273.9082395
272.9930883
272.9853423
272.9826658
272.9822652
272.9836847
272.9865726
272.9899405
272.9936064
272.997449
273.0017031
273.0061552
273.0106249
273.0144144
273.0168983
273.0175284
273.016131
273.0130201
273.006853
272.6449237
273.7778062
272.9956598
272.9903397
272.9886739
272.9884885
272.9893679
272.9910156
272.9928566
272.9949226
272.9973375
273.0004045
273.0039683
273.0078311
273.0111921
273.01337
273.0138918
273.0126535
273.01011
273.0052578
272.7003593
273.6563025
272.9978223
272.9945495
272.9937296
272.9936967
272.9941183
272.9947736
272.9954054
272.9962073
272.9974711
272.9994993
273.0022838
273.0055034
273.0083632
273.0102003
273.0106102
273.0095477
273.0075266
273.0038958
272.7421843
273.5117015
272.9992592
272.997575
272.9973426
272.9974012
272.9975061
272.9975024
272.9973624
272.9973372
272.9978112
272.9990744
273.0011304
273.0036839
273.0059814
273.0074452
273.0077542
273.0068908
273.0053627
273.0028102
272.8087029
273.3792466
273.0000259
272.9993902
272.9994714
272.9995739
272.99951
272.9991752
272.9986717
272.9982649
272.9983086
272.9990273
273.0004341
273.0022892
273.0039704
273.0050396
273.0052593
273.0046282
273.0035603
273.0019158
272.8529383
273.2232099
273.0012606
273.0020121
273.0041419
273.0046706
273.0058222
273.0045955
273.0038945
273.0017381
273.0009909
273.0001322
273.0008586
273.0009769
273.0019094
273.0007077
273.001771
273.0001976
273.0014376
273.0002812
272.9254279
273.0682078
273.6348168
273.5606089
274.111468
273.9619096
274.3340023
274.0852215
274.2508124
273.8926113
273.922737
273.4772939
273.4847444
273.0012333
273.1038692
272.6327095
272.9140702
272.4936229
272.9644471
272.5984144
273.1524739
275.0591909
273.0185304
273.0107056
273.0135716
273.0162348
273.0185583
273.0205235
273.0216635
273.0222921
273.0215193
273.0196622
273.0163103
273.012334
273.0081718
273.0041723
273.0014713
273.0007572
273.0006186
272.9941707
272.1036939
275.0500439
273.0153683
273.0070025
273.0093555
273.0118371
273.0142448
273.0164859
273.0180806
273.0192297
273.0190189
273.0176823
273.0148262
273.0112715
273.0074707
273.003794
273.0012552
273.0004765
273.0001155
272.9932285
272.1010554
275.0336968
273.0126961
273.0032674
273.0047137
273.0068426
273.0093887
273.0121818
273.0146158
273.0167523
273.0175438
273.0172025
273.0152433
273.0125003
273.0093954
273.0063125
273.0040794
273.0032114
273.0024246
272.9949576
272.0959841
275.0076808
273.0090556
272.9982391
272.9984889
273.0001407
273.0028613
273.006372
273.0099247
273.0133202
273.0154982
273.016425
273.0157257
273.0140786
273.0119586
273.009672
273.0078764
273.0068925
273.0055383
272.9973028
272.0929751
274.9695667
273.0048457
272.9925161
272.991425
272.9925429
272.9954301
272.9997482
273.0045276
273.0094019
273.0130803
273.0155535
273.0161934
273.0158391
273.0148472
273.0134962
273.0121847
273.0110703
273.009062
272.9999858
272.0882408
274.9228735
273.0005214
272.9867214
272.9842987
272.984854
272.9878689
272.9929483
272.998952
273.0051898
273.0104161
273.0143472
273.0164842
273.0174461
273.0176468
273.0172437
273.0164476
273.0151973
273.0125372
273.0027069
272.0889246
274.8594008
272.9965125
272.9814932
272.9779173
272.9779612
272.9810242
272.9868265
272.9938318
273.0012835
273.0077532
273.0130301
273.0164933
273.0187303
273.0200445
273.0205319
273.020157
273.0187732
273.0155175
273.0051546
272.0946472
274.7922498
272.9932765
272.9774045
272.972975
272.9725894
272.9756556
272.9819392
272.9896117
272.9977973
273.0051995
273.0114702
273.0160394
273.0192941
273.0215786
273.0228089
273.0228791
273.0213817
273.0176448
273.0070439
272.1066035
274.7006917
272.9910113
272.9749163
272.9700494
272.9693722
272.9724248
272.9788936
272.9867471
272.9951836
273.0029181
273.0097623
273.0150746
273.019132
273.0221333
273.0239158
273.0242797
273.022723
273.0187197
273.0081916
272.1326913
274.6142665
272.9899531
272.9742476
272.9693094
272.968514
272.971407
272.9777062
272.9852672
272.9933631
273.0009721
273.0079238
273.0136376
273.0181751
273.0216762
273.023843
273.0244192
273.0228499
273.018767
273.0086315
272.1620209
274.4928348
272.9897991
272.9753179
272.9706135
272.9698648
272.9725081
272.9782898
272.9851023
272.9924226
272.9993834
273.0060386
273.0117644
273.0165429
273.0202767
273.0226757
273.0233536
273.0218317
273.0178782
273.0084302
272.2144622
274.3872978
272.9906525
272.9778372
272.9736793
272.9730718
272.9754214
272.980369
272.9861048
272.9922014
272.9981663
273.0041212
273.0095674
273.0143335
273.0181233
273.0206102
273.0213134
273.0198958
273.0162434
273.0077087
272.2613949
274.2371286
272.9920168
272.9814292
272.9780292
272.9776379
272.9796226
272.9835526
272.9879858
272.9926513
272.9973361
273.0023251
273.0072086
273.011782
273.0154792
273.0179274
273.0186116
273.0173306
273.0140874
273.0066566
272.340891
274.1138573
272.993917
272.9855917
272.9830736
272.9829066
272.984486
272.9873098
272.9903574
272.9935215
272.9968677
273.0007508
273.0049263
273.009127
273.0126389
273.0149506
273.0155985
273.0144514
273.0116618
273.0054282
272.4008692
273.9393511
272.9957363
272.9897807
272.9881234
272.988157
272.9893002
272.9910963
272.992829
272.9946213
272.9967122
272.9995321
273.002946
273.006673
273.0098898
273.0120042
273.0125995
273.0115832
273.0092589
273.004263
272.5018549
273.8018736
272.9974647
272.9934873
272.9925605
272.9927042
272.9934345
272.9943594
272.9950524
272.9957549
272.9968377
272.9987354
273.0014367
273.004609
273.007433
273.0092902
273.0098064
273.0089415
273.0070705
273.0032315
272.5692413
273.6107299
272.9986241
272.9963358
272.9959229
272.996098
272.9964937
272.9968013
272.9968104
272.9968222
272.9972168
272.9984111
273.0004389
273.0029989
273.0053235
273.0068562
273.0072866
273.0065923
273.0051575
273.0024234
272.6837359
273.4632168
272.9994028
272.9982742
272.9981523
272.9983201
272.998487
272.9984332
272.998103
272.9977899
272.9978113
272.9984905
272.9999
273.0017897
273.0035299
273.0046772
273.0050047
273.0045006
273.0034886
273.0017001
272.7534719
273.260665
273.0013248
273.0013432
273.0046488
273.0041676
273.0067007
273.0043742
273.0043481
273.0014231
273.0007408
272.9996111
273.0002887
273.0003398
273.0008563
272.9999486
273.0005578
272.999784
273.0007568
273.0001617
272.8747576
272.9785481
273.8716543
273.5660791
274.4411113
274.0418904
274.6704316
274.1768908
274.4872772
273.9350091
274.0040631
273.4384612
273.3992232
272.8792948
272.8809825
272.4636272
272.6261805
272.353467
272.7222675
272.5631633
273.0106554
275.9001762
273.0284117
273.0155616
273.019291
273.02172
273.0232231
273.0233454
273.0224558
273.0212551
273.0193545
273.0170725
273.0137004
273.0095928
273.0051527
273.0007297
272.9976443
272.996768
272.9969847
272.9891916
271.5182499
275.8963685
273.0252674
273.0119596
273.0151821
273.017417
273.0189748
273.0193835
273.0189174
273.0182415
273.0168924
273.0150948
273.0121604
273.0084441
273.0043524
273.0002387
272.9973175
272.9963979
272.996416
272.9880271
271.5064829
275.8906657
273.022655
273.0083945
273.0107022
273.0125754
273.0142224
273.0151975
273.0155657
273.0158595
273.0154769
273.0145795
273.0124785
273.0095287
273.0061155
273.0025726
272.9999504
272.9989643
272.9986032
272.9897339
271.4850175
275.8765557
273.0190592
273.0035598
273.0046482
273.0060411
273.007818
273.009545
273.0110444
273.012623
273.0135669
273.0138659
273.0128901
273.0109787
273.0084958
273.0057187
273.0035081
273.0024392
273.001566
272.9920876
271.4598813
275.8518742
273.0148416
272.9979859
272.9976957
272.9985403
273.0004541
273.00301
273.0057996
273.0088822
273.0113163
273.0130216
273.0133119
273.0125978
273.0111859
273.0093141
273.0075799
273.0064137
273.0049438
272.9948274
271.4323758
275.8103101
273.0103825
272.9922411
272.9905695
272.9908385
272.992876
272.9962599
273.0003508
273.004907
273.0088714
273.0119778
273.0136082
273.0141273
273.0138398
273.0128882
273.0116652
273.0104057
273.0083251
272.9976653
271.4132573
275.7482763
273.006058
272.9869162
272.9840083
272.9837616
272.9858841
272.990024
272.9952655
273.0011574
273.0064206
273.0107783
273.0136696
273.0153939
273.0161979
273.0161257
273.015338
273.0139868
273.0113351
273.0002424
271.4049587
275.6649361
273.0022151
272.9825224
272.9786416
272.977995
272.9801984
272.9849141
272.9910382
272.9978194
273.0040733
273.0094389
273.0133701
273.0161085
273.0178418
273.0185335
273.01822
273.0168082
273.013687
273.002439
271.4154543
275.553551
272.9991343
272.9794549
272.9750497
272.9741414
272.9764028
272.9814849
272.9880509
272.9952453
273.0020054
273.008014
273.0127159
273.0162503
273.018715
273.0200081
273.0200355
273.0185765
273.0151577
273.0040687
271.4493026
275.422981
272.9969656
272.9779333
272.9733528
272.9723499
272.974584
272.9797537
272.9863019
272.9934265
273.0002647
273.0065316
273.0117053
273.0157904
273.0187875
273.0205137
273.020803
273.0193495
273.0157836
273.0051945
271.5055633
275.2569333
272.9956007
272.97791
272.9734895
272.9725762
272.9747454
272.9796904
272.985769
272.9923711
272.9988484
273.0050266
273.0103615
273.0147495
273.0180675
273.0200835
273.0205477
273.0191448
273.0156009
273.0056095
271.5916748
275.0810145
272.9950995
272.9792577
272.9752749
272.9745847
272.9766494
272.9810683
272.9863327
272.9920116
272.9977492
273.0034875
273.0087043
273.0131881
273.0166541
273.0188476
273.0194161
273.0181187
273.0147397
273.0056394
271.6910097
274.8666981
272.9951407
272.9816802
272.9783271
272.9779375
272.9798286
272.9835169
272.9877335
272.992252
272.9969737
273.0019799
273.0068229
273.0112244
273.014707
273.0169692
273.0176093
273.0164389
273.0133438
273.0052585
271.8252927
274.6564749
272.9957423
272.9848133
272.9822026
272.9821004
272.9837493
272.9865899
272.9896429
272.9928982
272.9964906
273.0006035
273.004903
273.0090606
273.012455
273.0146901
273.0153756
273.0143419
273.0115844
273.0046942
271.9535407
274.4058631
272.9964604
272.9882233
272.9863449
272.9864671
272.9878018
272.9898089
272.9917298
272.993794
272.9962929
272.9994846
273.0031461
273.0069308
273.0101226
273.0122481
273.0129528
273.0120557
273.0096824
273.0039403
272.1216774
274.1765886
272.9973504
272.9914903
272.9902473
272.9904722
272.9914687
272.9927291
272.9937168
272.9948095
272.9963884
272.9987237
273.0017204
273.0050127
273.0078749
273.0098047
273.0104887
273.0097489
273.0077812
273.0032495
272.2599477
273.9052205
272.9980108
272.994285
272.9935093
272.9937432
272.9944181
272.9951055
272.995441
272.9958808
272.9967667
272.998392
273.0006979
273.0033936
273.0057964
273.0074388
273.0080596
273.0074818
273.0059402
273.0025737
272.4470585
273.6687421
272.9986299
272.9965201
272.9960735
272.9962726
272.9966864
272.9969773
272.9969445
272.9970001
272.9974223
272.9984568
273.0000892
273.0020972
273.0039214
273.0051908
273.0056863
273.0052875
273.0041722
273.0019468
272.5820996
273.3863463
273.0011344
273.0018181
273.005474
273.0064428
273.0088045
273.0072536
273.0060073
273.0027484
273.0012266
272.9998251
273.0004094
272.9997802
273.0002091
272.9987453
272.9999771
272.9991037
273.0008328
273.0000866
272.7774061
273.1772413
274.0475259
274.0528685
274.8893803
274.7738395
275.2525292
274.954971
275.0050435
274.4934473
274.2988778
273.6270501
273.4201255
272.6859666
272.6888455
271.9848171
272.3755296
271.7982855
272.6061837
272.153314
273.1156754
276.7009624
273.0367998
273.0164
273.0201411
273.0221078
273.0228735
273.0219469
273.0197421
273.0175743
273.0150328
273.0126502
273.0092579
273.0050888
273.0005809
272.9963855
272.9938254
272.9931132
272.9938325
272.9846381
270.6203159
276.7034291
273.033729
273.012933
273.0161809
273.0179622
273.0187784
273.0180716
273.0162753
273.0145887
273.012611
273.0106873
273.0077114
273.0039333
272.9998063
272.9958774
272.99342
272.9926714
272.9932233
272.9831749
270.5978235
276.7141586
273.0313379
273.0096116
273.0119776
273.0134087
273.0142853
273.0141223
273.013133
273.012454
273.011356
273.0103364
273.008096
273.005112
273.0016384
272.9982515
272.9959485
272.9951267
272.995339
272.9849649
270.5457521
276.7151594
273.0278927
273.005065
273.0062452
273.0071801
273.0081642
273.008654
273.0088342
273.0093363
273.0096191
273.0096383
273.0086009
273.0066445
273.0041277
273.0014181
272.9994023
272.9984713
272.9981949
272.9874526
270.4937654
276.709527
273.0238491
272.9997757
272.9995981
272.9999848
273.0010505
273.0024481
273.003949
273.0061226
273.007742
273.0092544
273.0092899
273.0085564
273.0070196
273.0051543
273.0034489
273.0023641
273.0014728
272.9903278
270.4258731
276.6799228
273.0193722
272.9942481
272.9926811
272.9924732
272.9936496
272.9958811
272.9988312
273.0023775
273.005746
273.008363
273.00982
273.0102375
273.0099177
273.0088876
273.0075936
273.0063496
273.0048216
272.9933454
270.3818473
276.6208859
273.0148566
272.9890372
272.9862028
272.9854916
272.986771
272.9898887
272.9940964
272.9993191
273.0038326
273.0079882
273.0103921
273.0120662
273.01268
273.0125017
273.0115235
273.0101272
273.007954
272.9962751
270.3528737
276.5366097
273.0106318
272.9845893
272.9807355
272.9796119
272.9810524
272.9847987
272.9900829
272.9961982
273.0020861
273.0070203
273.0105991
273.0132115
273.0148296
273.0153631
273.0148374
273.0133276
273.010623
272.9989813
270.3584991
276.3979815
273.0068304
272.9813105
272.9768499
272.9755002
272.9770576
272.9812961
272.9871976
272.9941072
273.0005528
273.0062686
273.0106221
273.0140826
273.0163944
273.0175228
273.0172958
273.0157267
273.0126099
273.0012322
270.4133317
276.2472847
273.0038983
272.9793655
272.9746255
272.9731862
272.974841
272.9792709
272.9854264
272.9924814
272.9993062
273.0054454
273.0103989
273.014418
273.0172909
273.0188334
273.0188888
273.0173032
273.0139271
273.003075
270.4949518
276.0167924
273.0012904
272.978682
272.9740194
272.97271
272.974435
272.9788193
272.9848131
272.9916686
272.9983636
273.0046225
273.0098886
273.0142798
273.0174998
273.0193728
273.0196217
273.0180734
273.0145777
273.0043033
270.6513422
275.8033924
272.9997399
272.9792166
272.9749088
272.9738769
272.9756219
272.9797139
272.9851744
272.9913852
272.9976468
273.0037053
273.0090435
273.0135824
273.0170302
273.0191122
273.0195302
273.0180592
273.0145845
273.0050752
270.8056486
275.4904965
272.9982704
272.9807983
272.97703
272.9763573
272.9780356
272.9816609
272.9862879
272.9916067
272.9971134
273.0027091
273.0078449
273.0123878
273.0158966
273.0181271
273.0186802
273.0173297
273.0139916
273.005256
271.0526777
275.2325822
272.9978202
272.9831783
272.9800589
272.9797133
272.9812543
272.9842526
272.9878897
272.992133
272.9967452
273.0016553
273.0064194
273.0107651
273.0142277
273.0165039
273.0171857
273.0159922
273.0128937
273.0051583
271.2533129
274.8621235
272.9971983
272.9860418
272.983575
272.9834841
272.9847952
272.987126
272.9897385
272.9929212
272.9965674
273.0006972
273.0049085
273.0089144
273.012184
273.0144223
273.0151975
273.0141918
273.0114202
273.0047058
271.5587082
274.5818696
272.9973833
272.9890367
272.9871753
272.9872162
272.9882689
272.9899489
272.9916611
272.9938822
272.9966188
272.9999098
273.0034729
273.0069654
273.0099246
273.0120141
273.0128399
273.0120366
273.0096638
273.0041885
271.7731568
274.1859641
272.9973188
272.9918998
272.9905389
272.9906494
272.991427
272.9925582
272.9935582
272.9950066
272.9969311
272.9994193
273.0022363
273.0051013
273.0076068
273.0094413
273.0102342
273.0096212
273.0076959
273.0034646
272.1019995
273.8990374
272.9978442
272.9945219
272.993628
272.9937264
272.9942992
272.994952
272.9954766
272.9963006
272.9975294
272.9992361
273.0012663
273.0033996
273.0053264
273.0067806
273.0074459
273.0070052
273.0055755
273.0027068
272.3085957
273.4950639
273.0023802
273.0010927
273.0091683
273.0068548
273.0135589
273.0080086
273.008539
273.0028417
273.0018293
273.0002605
273.0007637
272.9998143
272.9994552
272.998766
272.9994061
272.9996421
273.0007509
273.0004667
272.6418619
273.0091679
274.6181443
274.1396174
275.7314038
275.069781
276.1315243
275.2811187
275.6136864
274.6628659
274.5066914
273.5630568
273.211176
272.3799626
272.1147208
271.5149904
271.602538
271.3820946
271.9701061
272.0286675
272.7643122
278.3278621
273.054037
273.013764
273.0169921
273.0189781
273.0194845
273.0183491
273.0158354
273.0131365
273.0100745
273.0068045
273.0028635
272.9983953
272.994201
272.990938
272.9895859
272.989657
272.9910582
272.980556
269.1992717
278.3512361
273.051248
273.0104629
273.0132185
273.0150053
273.0155103
273.0145299
273.0124559
273.0102328
273.00771
273.0050091
273.0014077
272.9973858
272.9935472
272.9904839
272.9891432
272.9891649
272.9904128
272.9785577
269.1381403
278.4067522
273.0495165
273.0074241
273.0093586
273.0107246
273.0112237
273.0106771
273.0093583
273.0080634
273.0064876
273.0046907
273.0020037
272.9987961
272.9956189
272.9929576
272.9916374
272.9915426
272.9924843
272.980714
269.0164327
278.4560757
273.0468143
273.0032407
273.0040591
273.0048986
273.0053883
273.0054851
273.0052641
273.0052533
273.0050039
273.0044174
273.0028762
273.0007562
272.9984958
272.996386
272.9951249
272.9948246
272.995284
272.9836744
268.8686746
278.5121471
273.0436607
272.9983413
272.9978377
272.998061
272.9986419
272.9995356
273.0005771
273.0020986
273.0033724
273.0042235
273.0040495
273.0031853
273.0019617
273.0004994
272.9993138
272.9986859
272.9985106
272.9872815
268.6992969
278.5205936
273.0397415
272.9932071
272.9913335
272.9909629
272.9916688
272.9934395
272.9958596
272.9989672
273.001784
273.0041868
273.0053681
273.0058012
273.0056211
273.0048353
273.0037808
273.0027936
273.0018851
272.9911999
268.5659668
278.4961866
273.0355485
272.988335
272.9851884
272.984272
272.9851145
272.9877933
272.9915082
272.9961778
273.0005624
273.0037048
273.0067086
273.0083661
273.0092039
273.0091238
273.0081932
273.0068508
273.0051936
272.9952062
268.4673328
278.3996883
273.0309517
272.9841394
272.9799619
272.9786201
272.9796255
272.9830537
272.9878864
272.9938679
272.999437
273.0043469
273.0078872
273.0106189
273.0123044
273.0128591
273.0121769
273.0105935
273.0082336
272.9989965
268.4482375
278.2358013
273.0263296
272.9809952
272.9761513
272.9745301
272.975687
272.9796919
272.9853272
272.9921883
272.9986997
273.0044723
273.0089168
273.0124703
273.0148373
273.0158947
273.015465
273.0137061
273.0107825
273.0021597
268.5095325
278.0013303
273.0216686
272.979
272.9737867
272.9720539
272.9733267
272.9776871
272.9837912
272.9911125
272.9982156
273.0045342
273.0096429
273.0138299
273.016735
273.0182108
273.0180276
273.0161908
273.0128262
273.0047916
268.6597775
277.677439
273.0168927
272.9781139
272.9728511
272.9711951
272.9725682
272.9770889
272.9832971
272.9906575
272.9979288
273.0045487
273.0100781
273.01466
273.0179691
273.0197548
273.0197945
273.0179526
273.0142931
273.0064855
268.9113622
277.3117429
273.0125955
272.9783078
272.97328
272.9718385
272.9732698
272.977672
272.9836373
272.9906708
272.9977664
273.0043902
273.0100948
273.0148933
273.018443
273.0204751
273.0207131
273.0189227
273.0151137
273.007588
269.2250582
276.8511468
273.0083425
272.9794693
272.9749003
272.9737305
272.975135
272.9791764
272.9846125
272.9910445
272.9976555
273.0040238
273.0096619
273.0144615
273.0181052
273.0203091
273.0207263
273.0190325
273.0152336
273.0075347
269.6408801
276.398554
273.0051142
272.9814315
272.9774501
272.9765564
272.9778502
272.9813148
272.9860202
272.9916296
272.9975397
273.0034137
273.0087564
273.0133647
273.0169482
273.0192567
273.019833
273.0182945
273.014663
273.0073742
270.0532037
275.8533351
273.0020454
272.9839837
272.9806251
272.979991
272.9810815
272.983918
272.9877449
272.9924441
272.9974991
273.0026905
273.0075041
273.0117338
273.0151146
273.0174097
273.0181261
273.016789
273.0134678
273.0065373
270.5603871
275.3731289
273.0002279
272.9868478
272.9841314
272.9836935
272.9845816
272.9867522
272.9896982
272.9934452
272.997568
273.0018974
273.0060052
273.0096753
273.0127297
273.0149102
273.0157281
273.0146248
273.0117206
273.0058461
270.9747052
274.7994803
272.9985318
272.9898285
272.9877279
272.9874788
272.9881299
272.9897163
272.9918221
272.9946351
272.9977924
273.0011788
273.0044491
273.0074653
273.0100656
273.0120148
273.0128314
273.0119436
273.009538
273.0046892
271.5051994
274.3246993
272.9980637
272.9928523
272.9914187
272.9913039
272.9918264
272.9928267
272.9941631
272.9960379
272.9982232
273.000587
273.0029657
273.0052158
273.0072486
273.0088214
273.0095265
273.0088487
273.0070126
273.0037296
271.8780383
273.7524891
273.0040571
273.0047846
273.0161875
273.0170154
273.024355
273.0196008
273.0160612
273.0083867
273.0044424
273.0017377
273.0015218
272.9994466
272.9990135
272.99891
272.9995688
273.0010682
273.001053
273.0016203
272.4057959
273.3643457
275.0312638
275.095217
276.7318102
276.5770727
277.422982
276.9209496
276.7076299
275.7705087
275.0560059
273.8705455
273.1433991
271.8763892
271.5455526
270.3743343
270.8735316
270.0850151
271.5897762
271.1168882
272.9244208
279.9769548
273.0761017
273.0096324
273.0128178
273.0154499
273.0168518
273.0163992
273.013686
273.0100329
273.0051356
272.9996224
272.994024
272.9888545
272.9850924
272.9833437
272.9834417
272.9848867
272.9875977
272.9789165
267.3193488
280.0387706
273.073973
273.0065411
273.009203
273.0116341
273.0129947
273.0126111
273.0102828
273.0070793
273.0028015
272.9979859
272.9927091
272.988045
272.9846411
272.9829791
272.9830976
272.9844888
272.9869963
272.9764477
267.2088287
280.1694542
273.0739331
273.00387
273.005678
273.0076942
273.008946
273.0089427
273.0072763
273.0051266
273.0018788
272.9983636