/*--------------------------------*- C++ -*----------------------------------*\
| =========                 |                                                 |
| \\      /  F ield         | OpenFOAM: The Open Source CFD Toolbox           |
|  \\    /   O peration     | Version:  5.x                                   |
|   \\  /    A nd           | Web:      www.OpenFOAM.org                      |
|    \\/     M anipulation  |                                                 |
\*---------------------------------------------------------------------------*/
FoamFile
{
    version     2.0;
    format      ascii;
    class       volVectorField;
    location    "2.4";
    object      U;
}
// * * * * * * * * * * * * * * * * * * * * * * * * * * * * * * * * * * * * * //

dimensions      [0 1 -1 0 0 0 0];

internalField   nonuniform List<vector> 
30538
(
(0.09830053742 0.001020885344 -0.0010876172)
(0.09929103901 0.002567475198 -0.00279397987)
(0.09018323398 0.00404761254 -0.003999032233)
(0.07961745694 0.004619981054 -0.004998874324)
(0.04924830769 0.005020914278 -0.004780175533)
(0.01776239003 0.004450435697 -0.0056507166)
(-0.03453071591 0.00393898495 -0.004591876515)
(-0.07386356953 0.002666621077 -0.006027586242)
(-0.1171224186 0.0017551441 -0.005084683212)
(-0.1330904401 0.0003596303504 -0.006440823186)
(-0.1371914358 -0.0004518122599 -0.005957670054)
(-0.1125244065 -0.001655380146 -0.006608468399)
(-0.07992237797 -0.002318703842 -0.006656799676)
(-0.0341894287 -0.003330636396 -0.006128242059)
(0.006895464563 -0.003910750501 -0.006460153801)
(0.04244045869 -0.00455736484 -0.004595081413)
(0.05889697616 -0.004521070944 -0.005504952354)
(0.06361283269 -0.004041899281 -0.002624744206)
(0.06074597371 -0.002707000556 -0.003399404448)
(0.05663128621 -0.001127711731 0.0002998803632)
(0.1008761196 0.002965447514 -0.001086941935)
(0.1013961808 0.007343436223 -0.002800314507)
(0.09162662428 0.0115988067 -0.003986582118)
(0.0803024217 0.01320242564 -0.005000818287)
(0.04912270008 0.01429610554 -0.004742208802)
(0.01698344768 0.01265673424 -0.005632843261)
(-0.03579874001 0.01096699015 -0.004531456847)
(-0.07540008624 0.00753738509 -0.005996158049)
(-0.1187461727 0.004590238285 -0.005003309416)
(-0.1346302221 0.001009498609 -0.006361856625)
(-0.1386214004 -0.00180045798 -0.005864404915)
(-0.1138566512 -0.004749237106 -0.006539315246)
(-0.08110723511 -0.007043616501 -0.006628969927)
(-0.03530656053 -0.009568978744 -0.00614184038)
(0.00603802715 -0.01144362969 -0.00652206444)
(0.04201328052 -0.01308408521 -0.004671441327)
(0.05926389007 -0.013108619 -0.00558204154)
(0.06490016296 -0.01162963923 -0.002675750967)
(0.06284416093 -0.007833982026 -0.003443417594)
(0.05929068645 -0.003227087616 0.0002935495216)
(0.1057058172 0.004645258661 -0.001093179709)
(0.105322367 0.01127005569 -0.002795832567)
(0.09432252024 0.01791057036 -0.003973987232)
(0.08150127133 0.0201819415 -0.004987258026)
(0.04885047026 0.02197471138 -0.004712769365)
(0.01539501309 0.01917988994 -0.005596944581)
(-0.03815608355 0.01687256284 -0.004486084993)
(-0.07836796354 0.01150034493 -0.005951360117)
(-0.1217281392 0.007500408388 -0.00489221962)
(-0.1375545443 0.001872685992 -0.006229737263)
(-0.1412637597 -0.001867058109 -0.00568389395)
(-0.1162326485 -0.00672968977 -0.006404591765)
(-0.08332148593 -0.009981564831 -0.006540754172)
(-0.03729232805 -0.01424422926 -0.00613593517)
(0.004417546995 -0.01704278388 -0.006580776746)
(0.04127616032 -0.01984056467 -0.004782550393)
(0.05994177732 -0.01985826802 -0.005680896648)
(0.06733516596 -0.01773569332 -0.002758358724)
(0.06675509742 -0.01191194251 -0.003500320082)
(0.06428148136 -0.004957098787 0.0002751577766)
(0.1122804948 0.00585661164 -0.001090189453)
(0.1106620984 0.01373116718 -0.002796649161)
(0.09793117847 0.02199491874 -0.003943911732)
(0.0831510474 0.0244511983 -0.004995368788)
(0.04840251666 0.02667207696 -0.00465350713)
(0.0133515624 0.02290101057 -0.005585803158)
(-0.04124553372 0.02019036999 -0.004356842436)
(-0.08202602565 0.01380782962 -0.005876851692)
(-0.1255410083 0.00924832055 -0.004696829354)
(-0.1411889731 0.002823956801 -0.006015630485)
(-0.1447010783 -0.001525929295 -0.005442942663)
(-0.1195941921 -0.007189139713 -0.006188997609)
(-0.08640341515 -0.011271658 -0.006407776108)
(-0.04027893436 -0.01657037177 -0.00607248886)
(0.002089466014 -0.02019314006 -0.006628064552)
(0.04003486581 -0.02385613761 -0.004870221036)
(0.06076805646 -0.02403742474 -0.005790461922)
(0.07050799654 -0.02160064848 -0.00282757362)
(0.07199375696 -0.01449893269 -0.003572015092)
(0.07097566038 -0.006089372419 0.0002647760671)
(0.1197013634 0.006550710883 -0.00109510338)
(0.1166012517 0.01433533559 -0.002762409851)
(0.1018952946 0.02354069557 -0.00391081719)
(0.0847708801 0.02540490289 -0.00496988827)
(0.04774198328 0.02809813744 -0.004631353273)
(0.01078441387 0.02332243817 -0.005566342675)
(-0.0446056105 0.02107484642 -0.004298698155)
(-0.08610098082 0.01425144221 -0.005819079979)
(-0.1294773508 0.0105616925 -0.004525129018)
(-0.1451140872 0.003999382907 -0.005803382755)
(-0.1483388363 0.0005020470781 -0.005156039581)
(-0.1231212049 -0.005661155595 -0.005934068453)
(-0.08993371267 -0.009661390551 -0.006163845647)
(-0.04358208502 -0.01589762963 -0.005916285418)
(-0.000730984574 -0.01991895563 -0.006538921303)
(0.03857191697 -0.02452738805 -0.004873036529)
(0.06155936197 -0.02497419611 -0.00578962825)
(0.07407429849 -0.02278447069 -0.002850775252)
(0.07786840026 -0.01530013916 -0.003584300852)
(0.07856036642 -0.006523752272 0.0002418997621)
(0.1271646295 0.006544655022 -0.001092785541)
(0.1225453541 0.01298230653 -0.002751665008)
(0.1057453855 0.02214048571 -0.003894095537)
(0.08633200605 0.02284052655 -0.005004953248)
(0.04690740474 0.02568107785 -0.004646065129)
(0.008365217615 0.02030734156 -0.005626469334)
(-0.04767385681 0.01890550247 -0.004265936125)
(-0.08945356289 0.01272143793 -0.005783080658)
(-0.1327712651 0.01067079523 -0.004387918775)
(-0.1482559764 0.005335180455 -0.005585893506)
(-0.1515269816 0.003401216011 -0.004917882085)
(-0.126777683 -0.002032139068 -0.005622379324)
(-0.0936229412 -0.005443708444 -0.005887081458)
(-0.04751620878 -0.01191311818 -0.005630171664)
(-0.004016066233 -0.01607358382 -0.006351713741)
(0.03647511513 -0.02150489043 -0.004719690095)
(0.06202516281 -0.02244481743 -0.005684437219)
(0.07734670401 -0.0211233235 -0.002761166906)
(0.08364790137 -0.01418183044 -0.003541354374)
(0.0861213889 -0.006250593855 0.0002390962974)
(0.1335936248 0.006079508889 -0.001101593749)
(0.1275083713 0.009787766979 -0.002726075425)
(0.1088532334 0.01834778411 -0.003897295372)
(0.08723209135 0.01710146607 -0.005037869101)
(0.04592028638 0.02018008371 -0.004717332916)
(0.00598364174 0.01429539826 -0.005721528055)
(-0.04997213136 0.01454544334 -0.004325231848)
(-0.09191348592 0.00949468274 -0.005804142447)
(-0.1346743345 0.01024288048 -0.004305730751)
(-0.1502262126 0.006801264887 -0.005430774235)
(-0.1535514887 0.007551205094 -0.004660249372)
(-0.1293709535 0.003445544907 -0.005286133589)
(-0.09691294794 0.001430268221 -0.005450856675)
(-0.05109534788 -0.004852237009 -0.0052077826)
(-0.007522367502 -0.008839824323 -0.005928967364)
(0.03408425573 -0.01508140406 -0.00437979798)
(0.0618524773 -0.01680686729 -0.005348930433)
(0.07991478516 -0.01695250135 -0.002536828398)
(0.08853954701 -0.01134330209 -0.003372760681)
(0.09273302317 -0.005292340786 0.0002378586152)
(0.1384585074 0.004973423087 -0.001119003761)
(0.1311082381 0.005139299131 -0.002786394223)
(0.110922801 0.01206336579 -0.004002083643)
(0.08760037984 0.008637531461 -0.005228881941)
(0.04490074286 0.01154234517 -0.004951601134)
(0.004371604638 0.005624009536 -0.006000284558)
(-0.05106502875 0.00774513019 -0.004577137346)
(-0.09248803368 0.00463096845 -0.005965416938)
(-0.1346482857 0.0087748717 -0.004420994576)
(-0.1501475269 0.008240594852 -0.005352637983)
(-0.1539116121 0.0124481313 -0.004499101753)
(-0.131101624 0.01047088405 -0.004908590004)
(-0.09949525819 0.01054202977 -0.005019767731)
(-0.05478308286 0.004982107108 -0.004650878416)
(-0.01126236109 0.001535259477 -0.005385501902)
(0.03085400612 -0.005551600794 -0.003843804898)
(0.06071606059 -0.008197979714 -0.004865271281)
(0.08119792134 -0.01054475479 -0.002153858596)
(0.09203625462 -0.006848970258 -0.003120486265)
(0.09762451539 -0.003844562 0.0002932954399)
(0.1408335109 0.00356840607 -0.001153318556)
(0.1324124458 -0.0009404171797 -0.00285906661)
(0.1113592633 0.004147125786 -0.004147540273)
(0.08685520918 -0.002233776851 -0.005457881898)
(0.043779652 0.0008207503057 -0.005243010874)
(0.00330086186 -0.005269796321 -0.006345213261)
(-0.05066101942 -0.000758499844 -0.004916340193)
(-0.09117666676 -0.001866876442 -0.006217532663)
(-0.1320971325 0.006230440953 -0.004568897455)
(-0.1476290961 0.008997100737 -0.005360981793)
(-0.1519952657 0.01700445019 -0.004297061129)
(-0.1307229356 0.01781967249 -0.004536212745)
(-0.1008131768 0.02034475476 -0.004433808808)
(-0.05747817391 0.01616557713 -0.003984764532)
(-0.0149876534 0.01351351129 -0.004597449024)
(0.02720879354 0.005974136292 -0.003120208889)
(0.05831896244 0.002257603322 -0.004116606534)
(0.08083976118 -0.002395822336 -0.00163144371)
(0.09339899701 -0.001396274189 -0.002713584869)
(0.1000469254 -0.001968748419 0.0003635684673)
(0.1404416425 0.001648503943 -0.00119302522)
(0.1314090062 -0.007663955544 -0.003011231199)
(0.1100727175 -0.005185361699 -0.004427868484)
(0.08526348199 -0.01436374685 -0.005844087602)
(0.04275888648 -0.01161790074 -0.005791178194)
(0.003276442698 -0.017373979 -0.006881242823)
(-0.04864188423 -0.01078984604 -0.005570229594)
(-0.08753923738 -0.009506961266 -0.006661523515)
(-0.1269412669 0.002406925861 -0.005032174793)
(-0.1425395886 0.008769596556 -0.005473329047)
(-0.147705405 0.02095464361 -0.004291899968)
(-0.128761499 0.02488765602 -0.004189226497)
(-0.1006948319 0.03040342099 -0.003955819478)
(-0.05964298104 0.02776357695 -0.003314727933)
(-0.01848814533 0.02630625003 -0.003854173621)
(0.02289450947 0.01835261604 -0.002344251363)
(0.05478141866 0.01386860112 -0.003355888932)
(0.07856800305 0.006684840722 -0.001038436184)
(0.09243348999 0.004807764945 -0.002278849149)
(0.09976288497 3.705261564e-05 0.0004802179748)
(0.1367432977 -0.0001870546849 -0.001237283287)
(0.1274773203 -0.01454250729 -0.003116835657)
(0.106718621 -0.01431963255 -0.004679838334)
(0.0823416986 -0.02665442493 -0.006165444768)
(0.041668071 -0.02396974969 -0.006248532154)
(0.003921025666 -0.03001491574 -0.007403643964)
(-0.04507692064 -0.02132121558 -0.006136259063)
(-0.08183459614 -0.01822809671 -0.007116104284)
(-0.1191507247 -0.00277258543 -0.005367780659)
(-0.1345398693 0.006848416537 -0.005616770678)
(-0.1406397767 0.02299009233 -0.004154597459)
(-0.1240831142 0.03029565444 -0.003853679997)
(-0.0988149523 0.03893933891 -0.003336403829)
(-0.06041878689 0.03819285087 -0.002616302736)
(-0.02166709637 0.03802846483 -0.002959762272)
(0.0183992295 0.03018464542 -0.001525578063)
(0.05004105398 0.02482981945 -0.002468011638)
(0.07437100905 0.01553415764 -0.0004396283567)
(0.08876887539 0.01063873127 -0.001774422551)
(0.09638784465 0.002103113055 0.0005698759192)
(0.1302157611 -0.002184650381 -0.001271938961)
(0.1213233879 -0.02078041409 -0.003305470569)
(0.1016306447 -0.02316022607 -0.005048392844)
(0.07848827385 -0.03810941451 -0.006663146507)
(0.04040938425 -0.03609527099 -0.00697385368)
(0.005189993679 -0.04244661896 -0.00808621761)
(-0.04028252601 -0.03244629489 -0.0070067943)
(-0.0744075946 -0.02774771042 -0.007712495282)
(-0.1092063785 -0.009440696548 -0.006006751988)
(-0.1243547901 0.003001419785 -0.005855771635)
(-0.1311749956 0.02279592892 -0.004302897251)
(-0.1175442338 0.0332710466 -0.003637149026)
(-0.09515346979 0.0453296196 -0.002984538215)
(-0.06034317176 0.04665866607 -0.002046176906)
(-0.02418246245 0.04823862877 -0.002279609503)
(0.01353557444 0.04070329542 -0.0008150003029)
(0.04438702931 0.03489579264 -0.001724925003)
(0.06846603417 0.02348372669 0.0001022141978)
(0.08298686134 0.01603505935 -0.001350571991)
(0.09052784137 0.003852426032 0.000663215306)
(0.1207029416 -0.003701743315 -0.00131231103)
(0.1125726557 -0.02648278438 -0.003403285782)
(0.09459989893 -0.03093832492 -0.005314150732)
(0.07325032623 -0.04873985752 -0.007014578621)
(0.03863673681 -0.04724612707 -0.007496171601)
(0.006554872288 -0.05464022286 -0.008588810659)
(-0.03465969721 -0.04362669656 -0.007562340143)
(-0.06555671487 -0.03823894354 -0.008087631371)
(-0.09742351478 -0.01776277836 -0.006292235282)
(-0.1117798078 -0.003307041743 -0.005953443818)
(-0.1192961357 0.01945218828 -0.004185847958)
(-0.1082226418 0.03277380801 -0.003379882926)
(-0.08940572674 0.04796688191 -0.002487438564)
(-0.05842642646 0.05172550072 -0.001516122803)
(-0.02591824496 0.05510093371 -0.001528270149)
(0.008933731742 0.04843053891 -0.0001806833648)
(0.03782411133 0.04245725561 -0.0009440398428)
(0.06097061662 0.02973782705 0.0005669106859)
(0.0749243701 0.02014674475 -0.0008875538575)
(0.08210826471 0.005312887967 0.0006869292722)
(0.1090682977 -0.005170107835 -0.001293575788)
(0.1020199514 -0.03127025716 -0.003518140504)
(0.08602774797 -0.03807257193 -0.005507915919)
(0.06702071692 -0.05824613031 -0.007335385168)
(0.03627810877 -0.05792891811 -0.00799608781)
(0.007799520968 -0.06635921213 -0.009015303742)
(-0.02866339094 -0.05515978632 -0.008172304365)
(-0.056108831 -0.04948132772 -0.008420096092)
(-0.08453645691 -0.02767521801 -0.006733857067)
(-0.09808113586 -0.0117809003 -0.006078747731)
(-0.1057289208 0.01343383348 -0.004332760397)
(-0.09746517121 0.02905690893 -0.003258380202)
(-0.08182777042 0.04721877753 -0.002329886898)
(-0.05536537498 0.05336417331 -0.001205007277)
(-0.02656075279 0.05894861198 -0.001140876199)
(0.004564644498 0.05334223885 0.0002231589196)
(0.03112731407 0.04783870339 -0.0004750657742)
(0.05263265642 0.03423035795 0.0008744418057)
(0.06574876982 0.02328203921 -0.0005971206056)
(0.0723115603 0.00630844427 0.0007126453496)
(0.09513189877 -0.006097662534 -0.0012726498)
(0.0892903591 -0.03536761237 -0.003410259817)
(0.07565909661 -0.04388197523 -0.005463799834)
(0.05927650692 -0.06663938068 -0.0072371744)
(0.03294312007 -0.06734426725 -0.008003907035)
(0.008556617747 -0.07737035023 -0.008902855661)
(-0.0227080736 -0.06624838565 -0.00812795727)
(-0.04611874534 -0.0610788612 -0.00820418631)
(-0.07080454658 -0.03861306442 -0.006559371075)
(-0.08276099386 -0.02216826764 -0.005824272093)
(-0.09048845243 0.004604830265 -0.004052604074)
(-0.08442579408 0.02201801038 -0.002970912037)
(-0.07230421142 0.04256049187 -0.001936895364)
(-0.05020075329 0.05105095041 -0.0008987195)
(-0.02598648647 0.05883653065 -0.0006633009575)
(0.001045858704 0.05482210737 0.000517340885)
(0.02427140786 0.05022001702 1.031346224e-05)
(0.04355734507 0.03663689265 0.001047374932)
(0.05522057651 0.02495917407 -0.0002751075165)
(0.0609679078 0.006919798549 0.000648074632)
(0.07995522594 -0.006971765817 -0.001140253264)
(0.07530254283 -0.03851055124 -0.003239713931)
(0.06405074042 -0.04881481539 -0.005155846808)
(0.05049567348 -0.07353223534 -0.006901881828)
(0.02873369287 -0.07554849013 -0.007670895672)
(0.008612784177 -0.08695316824 -0.008479898673)
(-0.01713093514 -0.07654335546 -0.007843202839)
(-0.03656893565 -0.07209463671 -0.007774520175)
(-0.05706231165 -0.04973504463 -0.006326396437)
(-0.06758055036 -0.03328911635 -0.005496815132)
(-0.07455141851 -0.00577871106 -0.003916257088)
(-0.07072339399 0.01288741059 -0.002793043818)
(-0.06138500475 0.03541439168 -0.00187397021)
(-0.0439213581 0.04592560286 -0.0008196822347)
(-0.02394552769 0.0560246523 -0.0005980469839)
(-0.001560114125 0.05371023541 0.0005427207272)
(0.01823477377 0.05050757903 9.886165438e-05)
(0.03472716453 0.03732702725 0.001033610254)
(0.0447892494 0.02563803867 -0.0001855271975)
(0.04953893652 0.007084783669 0.0005981183789)
(0.06319980026 -0.007428226093 -0.001013328923)
(0.05971041494 -0.04099207794 -0.002752896333)
(0.05103540555 -0.05239678672 -0.00451347925)
(0.04044169945 -0.07910569718 -0.005957595925)
(0.02350045852 -0.08203923387 -0.006707317179)
(0.007883338278 -0.09510865025 -0.007297971025)
(-0.0121991973 -0.08536555006 -0.006791245877)
(-0.02716868622 -0.08216055725 -0.006628443991)
(-0.04339888288 -0.06025996445 -0.005395447937)
(-0.05174307793 -0.04442866672 -0.004631385921)
(-0.05791110915 -0.01667996957 -0.003246207754)
(-0.05538427257 0.002551498008 -0.002293731678)
(-0.0490167966 0.02656483869 -0.001441416016)
(-0.03568543463 0.03878491221 -0.0006110607854)
(-0.02052836669 0.05089993342 -0.0003110982058)
(-0.002885754477 0.05038973624 0.0005499243204)
(0.01265971181 0.04868672934 0.0002945158586)
(0.02593289806 0.03644405566 0.0009250554955)
(0.03390501291 0.02518348568 -1.779722787e-05)
(0.03758289026 0.006937982365 0.000459923598)
(0.04595802056 -0.007915209819 -0.0007409096882)
(0.04351988734 -0.04277976253 -0.002210343217)
(0.03724356511 -0.05536861813 -0.003516849462)
(0.02961169984 -0.08331312612 -0.004745248647)
(0.01746402877 -0.08728224307 -0.005287361329)
(0.006281747399 -0.1014402527 -0.005793769831)
(-0.00798056852 -0.09261634094 -0.005392750776)
(-0.01882781136 -0.09042371131 -0.005263438956)
(-0.03041167128 -0.06937537283 -0.004329893959)
(-0.0368263002 -0.05427707982 -0.003708107495)
(-0.04140614126 -0.02666353932 -0.002676168387)
(-0.04021311138 -0.007215993853 -0.001889379607)
(-0.03582422108 0.01792556316 -0.001276087547)
(-0.02676381139 0.03160132132 -0.0005576372578)
(-0.01577572661 0.04560696626 -0.0003623550058)
(-0.003151199187 0.04668470426 0.0003806660049)
(0.008353559618 0.04648068698 0.0001508532262)
(0.0180716878 0.03509483232 0.0006988777879)
(0.02400107877 0.02445427718 -5.419469012e-05)
(0.02657608411 0.006636304132 0.0003658939843)
(0.0275737421 -0.008083970791 -0.0005113521786)
(0.02613223548 -0.04380550985 -0.001343739019)
(0.0224531108 -0.05695549437 -0.002268794542)
(0.01789752407 -0.08564633453 -0.002951501361)
(0.01069426808 -0.09019338148 -0.003373711331)
(0.004124369286 -0.1051506456 -0.003593364238)
(-0.004393522859 -0.09709208915 -0.0033843247)
(-0.01069927769 -0.09587703199 -0.003228222969)
(-0.01781394613 -0.07562284302 -0.002659867517)
(-0.02156087441 -0.0612752153 -0.002236707051)
(-0.02469857927 -0.03396560587 -0.001577939886)
(-0.0239346979 -0.0144586051 -0.001097164579)
(-0.02165262568 0.01118288202 -0.0006616314906)
(-0.01618223301 0.02582089374 -0.0002751537437)
(-0.009901842796 0.04104853591 -7.915550489e-05)
(-0.002275341251 0.04333994602 0.0002893462514)
(0.004484156686 0.04421154522 0.0002231916101)
(0.01037847055 0.03366006174 0.0004522541224)
(0.01389449136 0.02360875613 5.21103924e-05)
(0.0153947248 0.006351522674 0.0001962168839)
(0.009507170213 -0.00814884794 -0.0001383896605)
(0.009131285259 -0.04445071646 -0.0005372228411)
(0.00789848842 -0.05792541183 -0.0007750247771)
(0.006297800073 -0.08734962646 -0.00112315151)
(0.00377644568 -0.09206211692 -0.001191939904)
(0.001430893183 -0.1078169146 -0.001366549006)
(-0.001495211094 -0.09999852969 -0.00123548016)
(-0.003768999709 -0.09960444892 -0.001246153088)
(-0.006078765427 -0.07973332097 -0.001023030129)
(-0.007492422263 -0.06589150774 -0.0008972178731)
(-0.008369569411 -0.0386264047 -0.0006736453642)
(-0.008302025523 -0.01888941561 -0.0004931830101)
(-0.007314889321 0.007240419002 -0.0003677438705)
(-0.005614493205 0.02241129401 -0.0001861247927)
(-0.00336995824 0.03828767673 -0.0001712748972)
(-0.0009408019993 0.04129645422 3.335607717e-05)
(0.001432139093 0.04276346023 -3.888762053e-05)
(0.003382122231 0.03269891719 0.000130817482)
(0.004644679735 0.02299902693 -4.550528052e-05)
(0.005188476664 0.006146521948 8.853326251e-05)
(0.09332615927 0.001022326256 -0.007811719)
(0.09530883045 0.002550175501 -0.004698002566)
(0.08734377119 0.004052528131 -0.0181447921)
(0.07859454708 0.004597001643 -0.0127377419)
(0.04835202231 0.005072248947 -0.02251217792)
(0.01798244713 0.004464664203 -0.01667313677)
(-0.0351004914 0.004040906177 -0.02289210755)
(-0.07451759098 0.002713146712 -0.01891434089)
(-0.1176651637 0.001901979024 -0.02247485575)
(-0.1341932758 0.0005011225248 -0.01997805142)
(-0.1374179344 -0.0002878575194 -0.02126739845)
(-0.1134176171 -0.001531508838 -0.01987977803)
(-0.07925391584 -0.002269148347 -0.01959832402)
(-0.03388645413 -0.003360801034 -0.01907226431)
(0.00899681609 -0.004034653417 -0.01710125348)
(0.04376213723 -0.004703573769 -0.01670324257)
(0.06152913658 -0.004671039793 -0.01358662218)
(0.0662735926 -0.004141762398 -0.01253162834)
(0.06479731228 -0.002787651821 -0.006742718189)
(0.06051663618 -0.001137521253 -0.003526296846)
(0.09588591959 0.002957218986 -0.007863043052)
(0.09742349223 0.007333602929 -0.004673213656)
(0.08877998376 0.01160707763 -0.01820645158)
(0.07930649502 0.01318045556 -0.0127115194)
(0.04825129519 0.01437152245 -0.02257947987)
(0.01723791542 0.0127190239 -0.01664586779)
(-0.03634626545 0.01113435047 -0.02291548174)
(-0.07602605425 0.007651777078 -0.01888584736)
(-0.1192184863 0.004934347128 -0.02233334762)
(-0.1357266711 0.001389314534 -0.01984545189)
(-0.1388631405 -0.001316358724 -0.02098404122)
(-0.1148281034 -0.004383970226 -0.01978443553)
(-0.08054560059 -0.006837611802 -0.01949522907)
(-0.0351236992 -0.009605279541 -0.01917922456)
(0.0080633072 -0.01169673801 -0.01724544581)
(0.04331932195 -0.01345402453 -0.01694993018)
(0.06193216088 -0.01345495503 -0.01376662109)
(0.06761322875 -0.01189256783 -0.01269952273)
(0.066954751 -0.008015174109 -0.006823648357)
(0.06324785616 -0.003269913562 -0.003567665374)
(0.1007078733 0.004646562384 -0.0078577421)
(0.1013749156 0.01127621938 -0.004709634348)
(0.09146821933 0.01796077269 -0.01820594399)
(0.08051609166 0.02015534435 -0.01274871826)
(0.04801116945 0.02210846904 -0.02262611858)
(0.01567489884 0.01925510298 -0.01664583093)
(-0.03868770229 0.01718937459 -0.02301693522)
(-0.07891055339 0.01171232307 -0.01882921787)
(-0.1220798764 0.008068277251 -0.02245155435)
(-0.1385768277 0.002510583558 -0.01959165711)
(-0.1415063557 -0.001103641755 -0.02115135946)
(-0.1173167427 -0.006086711381 -0.01960158661)
(-0.08292927937 -0.009577035073 -0.01972350949)
(-0.03730871593 -0.0141377126 -0.01934164645)
(0.006291740613 -0.01727690897 -0.01767843234)
(0.04253525274 -0.02024552186 -0.01735562877)
(0.06265269786 -0.02027684525 -0.0141569086)
(0.07011853704 -0.01804586912 -0.01297941562)
(0.07095303104 -0.01214339914 -0.007000584698)
(0.06835218768 -0.00500859265 -0.003625028894)
(0.1072828571 0.005862654667 -0.007964598006)
(0.1067520795 0.01379761478 -0.00462967662)
(0.09505050133 0.02209224592 -0.01830554184)
(0.08219608529 0.02444893819 -0.01268953598)
(0.04759870777 0.02680435262 -0.02278524081)
(0.01372524433 0.02295991545 -0.01659241907)
(-0.04169022219 0.02054754411 -0.02306323669)
(-0.08249159849 0.014064684 -0.01876265869)
(-0.1257093861 0.00994120886 -0.02199634361)
(-0.1421687041 0.003623451689 -0.01922216636)
(-0.1449409462 -0.0005462388633 -0.02024646834)
(-0.1208144958 -0.006307670518 -0.01923636778)
(-0.0862136559 -0.01056855816 -0.01920593023)
(-0.04053922743 -0.0161677604 -0.01934046809)
(0.003767712344 -0.02014407017 -0.01773550999)
(0.04121779733 -0.02405107627 -0.01771772782)
(0.06350687126 -0.02426415519 -0.01440276083)
(0.07335889101 -0.02179665279 -0.01324980579)
(0.07626885399 -0.01463897332 -0.007128852684)
(0.07516968611 -0.006148235326 -0.003698874044)
(0.114744371 0.006556377612 -0.007922229134)
(0.1127449929 0.01442860621 -0.004686751264)
(0.09898528177 0.02362122088 -0.01826329223)
(0.08379607097 0.02536304377 -0.01279123086)
(0.04694059436 0.0280997332 -0.02293164309)
(0.0112072155 0.02324710145 -0.01667967732)
(-0.04499313575 0.02125732222 -0.02337574192)
(-0.08642559629 0.01443755493 -0.01876740182)
(-0.1294476305 0.01115214543 -0.02233712582)
(-0.1459534713 0.00481282982 -0.01887156793)
(-0.1485187638 0.001496314884 -0.02070804652)
(-0.1243975925 -0.004586277595 -0.01882624128)
(-0.08988024927 -0.008684305671 -0.0193945813)
(-0.04404923973 -0.01506720026 -0.01920114912)
(0.0007401504026 -0.01941766258 -0.01798331384)
(0.03964260041 -0.02426395961 -0.01789232964)
(0.06427083098 -0.02478770057 -0.01461946182)
(0.07692225738 -0.02267208063 -0.01338030905)
(0.08214171068 -0.01521981239 -0.007221298732)
(0.08281442359 -0.006567147892 -0.003736403136)
(0.1222287603 0.006542423233 -0.00801467977)
(0.1187088677 0.01306234748 -0.004603910688)
(0.1027646919 0.02216077122 -0.01833859612)
(0.08530536027 0.02270205562 -0.01281221012)
(0.04607737878 0.02550535151 -0.02314263651)
(0.008845746813 0.02000509081 -0.01677264662)
(-0.04793037263 0.0188709751 -0.02343873982)
(-0.08965068488 0.01275048728 -0.01881082081)
(-0.1325020889 0.01109455875 -0.02167036188)
(-0.1489644977 0.006041816126 -0.01848429318)
(-0.1515788041 0.00435245277 -0.01922097855)
(-0.1280041928 -0.0008014442837 -0.01819935126)
(-0.0936092236 -0.004099890037 -0.01822892089)
(-0.04810416618 -0.01058117564 -0.01861997632)
(-0.002715500402 -0.01493858909 -0.01733878522)
(0.03743803573 -0.02059833501 -0.01761551446)
(0.06465661322 -0.02162081844 -0.01428515296)
(0.08012547729 -0.02053379794 -0.01319712111)
(0.08779359457 -0.01375712478 -0.007074755841)
(0.09033300911 -0.006252198087 -0.003727364392)
(0.1286840502 0.006037805013 -0.007933203364)
(0.1236805113 0.009734264091 -0.004759362378)
(0.1057887775 0.018142975 -0.018362927)
(0.08610948654 0.0166807188 -0.01314856397)
(0.04500783709 0.01959810193 -0.02350848485)
(0.006485181746 0.01357667588 -0.01721505463)
(-0.05012947948 0.01396038142 -0.02407683231)
(-0.09193115003 0.009146632735 -0.0191218586)
(-0.1341781046 0.01019110292 -0.02232579911)
(-0.150699917 0.007244229352 -0.01830197764)
(-0.1533586063 0.008363687157 -0.01994454066)
(-0.1303613265 0.00479830036 -0.01755600152)
(-0.09679119677 0.003068125011 -0.01798835602)
(-0.05170114963 -0.003012574911 -0.0177447649)
(-0.006328413787 -0.007025441684 -0.01670707111)
(0.0349298171 -0.0134524748 -0.01683782002)
(0.06433859589 -0.01526198539 -0.01360512552)
(0.08248429851 -0.01580281128 -0.01258751871)
(0.09237685149 -0.01052168522 -0.006693399369)
(0.09672828351 -0.005183119155 -0.003648071196)
(0.1334432793 0.004879942725 -0.007987084578)
(0.1271626237 0.004898508928 -0.004894333392)
(0.1076812625 0.01158904686 -0.01855137404)
(0.08629954327 0.007846274019 -0.01357030909)
(0.04386333961 0.01053030579 -0.02392681586)
(0.004845688071 0.004410702136 -0.01787185715)
(-0.05106742201 0.006598943579 -0.02439256948)
(-0.09231559713 0.00383196765 -0.01959333146)
(-0.1338340004 0.008284657111 -0.02181920905)
(-0.1502497032 0.008375261177 -0.01817956814)
(-0.1533165155 0.01315198415 -0.01826310744)
(-0.1317381008 0.01188921572 -0.01670358022)
(-0.09913587183 0.012462584 -0.01620423812)
(-0.05523929624 0.007281339532 -0.01633159805)
(-0.01009399202 0.004044357321 -0.0150261232)
(0.03161824737 -0.003187164683 -0.01540058979)
(0.06300596061 -0.005868720746 -0.01221778189)
(0.08347027904 -0.008831157237 -0.01146780659)
(0.09542891948 -0.005580440489 -0.005987431531)
(0.1012132645 -0.003600036848 -0.00343864607)
(0.1356671018 0.00342799923 -0.007907051246)
(0.1283212245 -0.001356839881 -0.005364134286)
(0.1079036639 0.003336134733 -0.01885628063)
(0.08534751472 -0.003400051635 -0.01447543093)
(0.04257204572 -0.0007969641231 -0.02477718412)
(0.003706847882 -0.006982896284 -0.01905803602)
(-0.05053246263 -0.002672879727 -0.02554888947)
(-0.09073176087 -0.003206855231 -0.0204814263)
(-0.1309529447 0.005079059217 -0.02271075838)
(-0.1472581442 0.00876694823 -0.01828142666)
(-0.1508909575 0.01741197752 -0.01839470733)
(-0.1308559672 0.0191778939 -0.01577360362)
(-0.1000591625 0.02235498829 -0.01519242009)
(-0.05766394029 0.01867862657 -0.01462248194)
(-0.01374026528 0.01640189794 -0.0132382062)
(0.02791827168 0.008799319214 -0.01341202968)
(0.06034590336 0.005115078631 -0.01035278937)
(0.08266492445 -0.000286639719 -0.009880411214)
(0.09618118777 0.0002105677378 -0.004950520746)
(0.1030029516 -0.001609517592 -0.003127568548)
(0.1350009717 0.001485538056 -0.007881705177)
(0.1269994791 -0.008146001612 -0.0057949321)
(0.1062971297 -0.006202664677 -0.01922435448)
(0.08338771672 -0.01570757661 -0.01541605855)
(0.0413364866 -0.01354347166 -0.02554001529)
(0.003537340426 -0.01941550089 -0.02037865619)
(-0.04838068836 -0.01312509749 -0.02628553522)
(-0.08682612228 -0.01122640903 -0.02148978126)
(-0.125348632 0.0008999101284 -0.02272439734)
(-0.1415343069 0.008288126583 -0.01841582558)
(-0.1459825993 0.0212351604 -0.01718490881)
(-0.1282733285 0.02617985147 -0.01475050334)
(-0.09950566779 0.03248390432 -0.0132431488)
(-0.05947073898 0.030342678 -0.01269051372)
(-0.01710022116 0.02940138272 -0.01096498124)
(0.02362606127 0.02136227364 -0.0111060626)
(0.05656748569 0.01699138685 -0.008220843573)
(0.0799623401 0.008934940084 -0.008013580482)
(0.09457182088 0.006594889471 -0.003841755669)
(0.1019900785 0.0004290385264 -0.002650108107)
(0.1310788452 -0.0003414304318 -0.007739882905)
(0.1227974556 -0.01509733347 -0.0064331401)
(0.1026433814 -0.01550754771 -0.01968611318)
(0.08019089034 -0.02821013574 -0.01668021651)
(0.03996990638 -0.02621919397 -0.0266833682)
(0.004036013558 -0.03231593094 -0.02205828535)
(-0.04471616984 -0.02405478154 -0.02777416879)
(-0.08080205161 -0.02022517465 -0.02276628162)
(-0.1171362391 -0.004609047387 -0.02374806946)
(-0.1328922968 0.006130127594 -0.01869650768)
(-0.1382705495 0.02298014235 -0.01712722476)
(-0.1229565054 0.03134654876 -0.01370963077)
(-0.09714279904 0.04078943055 -0.01186699607)
(-0.05987594188 0.0405912436 -0.01063288926)
(-0.02012147311 0.04101511261 -0.00866370485)
(0.01912151667 0.03307556155 -0.008572223913)
(0.05153055089 0.02791514637 -0.0058501196)
(0.0752599236 0.01768588431 -0.006041785688)
(0.09021594943 0.01240074599 -0.002563308287)
(0.0978301264 0.002447359977 -0.002210892343)
(0.1242227206 -0.002332368508 -0.007537493561)
(0.1162030007 -0.02132410112 -0.006993664388)
(0.09713477034 -0.0243699884 -0.01996868731)
(0.07586685629 -0.03972117323 -0.01785025803)
(0.03846612302 -0.03845339596 -0.0273879671)