/*--------------------------------*- C++ -*----------------------------------*\
| =========                 |                                                 |
| \\      /  F ield         | OpenFOAM: The Open Source CFD Toolbox           |
|  \\    /   O peration     | Version:  5.x                                   |
|   \\  /    A nd           | Web:      www.OpenFOAM.org                      |
|    \\/     M anipulation  |                                                 |
\*---------------------------------------------------------------------------*/
FoamFile
{
    version     2.0;
    format      ascii;
    class       volScalarField;
    location    "7.6";
    object      p;
}
// * * * * * * * * * * * * * * * * * * * * * * * * * * * * * * * * * * * * * //

dimensions      [1 -1 -2 0 0 0 0];

internalField   nonuniform List<scalar> 
30538
(
101287.4908
101270.2104
101267.8068
101258.7996
101241.7769
101240.7731
101250.2977
101259.0767
101265.7273
101278.3712
101293.1734
101299.4455
101298.9744
101305.3929
101317.4701
101321.9727
101313.2893
101301.9408
101295.9245
101297.1128
101290.0032
101274.6778
101264.12
101255.2998
101245.8118
101245.8734
101254.3399
101263.1631
101269.1957
101278.1896
101289.3278
101298.1114
101301.7053
101305.981
101311.8447
101313.8985
101309.9578
101304.379
101300.5989
101299.9982
101293.7056
101280.8529
101261.3187
101252.4347
101251.7309
101252.895
101259.3341
101268.5667
101274.6762
101279.0394
101285.2063
101295.7897
101303.9207
101306.1536
101305.0776
101304.7562
101306.7407
101307.6283
101306.1101
101303.1574
101296.7792
101285.7237
101261.3432
101253.0145
101258.8885
101260.1946
101263.1658
101272.2386
101280.2511
101282.1256
101282.9112
101293.2748
101303.8122
101304.3726
101299.343
101298.4756
101304.7559
101309.4569
101308.5441
101304.2392
101296.677
101285.1999
101264.8219
101258.014
101265.5473
101267.2329
101266.1377
101273.8888
101284.1214
101286.4386
101283.8492
101290.4215
101299.8009
101300.0624
101295.2417
101295.721
101303.5451
101308.8423
101306.7727
101302.5834
101293.771
101280.2068
101270.933
101266.5347
101270.9721
101273.376
101269.8807
101275.0936
101285.2693
101289.7978
101287.0835
101288.3949
101292.8598
101294.1094
101292.1895
101294.1304
101300.9862
101305.9313
101303.3683
101300.535
101291.3419
101278.065
101278.402
101276.1814
101275.5601
101278.333
101276.1998
101278.2656
101284.481
101289.8607
101289.5627
101288.0137
101287.4104
101288.7953
101288.7897
101290.9546
101296.7169
101302.5413
101302.9246
101301.0837
101292.2588
101281.3952
101284.6146
101283.609
101279.536
101281.5488
101283.9834
101284.2936
101284.0162
101287.7381
101289.7955
101287.7027
101284.4579
101285.2344
101285.8796
101286.9539
101291.147
101299.3306
101305.3243
101303.9159
101296.0033
101288.439
101287.6217
101287.2381
101283.131
101283.5338
101290.2845
101291.2675
101286.15
101286.5321
101288.8739
101287.4937
101283.3625
101283.4323
101284.2592
101283.5864
101286.4091
101296.4
101307.76
101306.5815
101299.6009
101293.6766
101287.5987
101287.8002
101286.827
101285.3112
101292.5704
101295.0312
101290.6034
101288.3652
101288.5283
101286.3862
101281.2479
101281.6426
101284.2062
101284.0664
101285.2037
101293.5302
101305.1818
101305.443
101300.3462
101294.7857
101287.1658
101288.1381
101291.0249
101288.4286
101291.5518
101294.2286
101294.5239
101292.3407
101290.0137
101285.9189
101279.3868
101279.9792
101284.8734
101287.5458
101288.1203
101291.2049
101297.6198
101300.5825
101298.2546
101292.9542
101288.5071
101289.9029
101295.4617
101293.2805
101289.8667
101290.2553
101295.2927
101295.6395
101292.481
101287.102
101279.6678
101279.2019
101285.3909
101292.2108
101293.5212
101290.5589
101288.915
101294.1193
101295.3598
101291.3492
101291.4813
101292.2537
101297.5849
101296.8789
101289.8347
101286.9346
101294.1486
101297.1114
101294.2652
101289.5396
101283.3652
101280.9053
101285.4938
101294.9499
101298.2153
101292.4882
101284.5413
101290.5045
101294.4498
101291.6154
101293.4558
101293.1063
101295.9201
101296.346
101291.2286
101287.5479
101293.8262
101296.8379
101294.0512
101291.5672
101288.1904
101284.8683
101286.4725
101295.5909
101300.6636
101296.4103
101287.0162
101291.2887
101295.96
101293.9388
101293.1895
101292.0631
101291.6817
101292.141
101292.4575
101291.5439
101295.7187
101295.9253
101292.4514
101291.3688
101291.466
101289.7274
101289.3615
101294.6671
101300.6272
101300.4325
101294.8202
101295.9729
101298.5132
101296.4502
101292.6636
101291.9708
101288.5644
101288.1355
101292.6629
101295.8448
101298.5018
101295.3748
101290.9742
101289.882
101291.7878
101293.532
101293.5599
101295.0181
101298.9757
101301.631
101301.2897
101300.6644
101300.3824
101298.0429
101293.4975
101293.3643
101288.8814
101287.6913
101292.7336
101298.1638
101299.6074
101295.3496
101291.8169
101289.5307
101291.2574
101296.1549
101298.1453
101296.7444
101296.8006
101299.2571
101303.0884
101302.9671
101300.5489
101298.2651
101295.9228
101296.0814
101292.7727
101291.1764
101293.7951
101298.8428
101298.5416
101295.2975
101294.5591
101292.4269
101292.3433
101298.2865
101300.9899
101298.17
101295.082
101296.0948
101301.6656
101302.8892
101299.4487
101298.3929
101298.3288
101299.0744
101297.5361
101295.8829
101296.2588
101299.1466
101296.9199
101296.1093
101298.3406
101297.4275
101295.9375
101299.1658
101301.4973
101298.9823
101294.9858
101294.4874
101299.4964
101301.4131
101298.3934
101299.7654
101300.0497
101299.3432
101300.5054
101298.1
101298.5772
101299.1557
101297.7329
101298.7256
101300.3296
101299.2505
101299.1488
101299.4604
101300.3281
101299.8491
101297.4381
101296.9565
101298.6555
101300.3467
101287.325
101270.3372
101265.5949
101258.5579
101247.9723
101248.7884
101255.3084
101264.1071
101271.7645
101281.8892
101295.9303
101308.5035
101312.0052
101311.5307
101314.9061
101320.7871
101319.5054
101310.9685
101301.8895
101298.243
101289.8938
101273.8712
101261.5799
101254.8239
101250.8927
101251.4759
101256.8408
101266.2812
101275.2716
101284.3514
101294.0877
101304.9615
101311.3802
101313.3381
101314.7855
101317.4394
101316.1555
101310.1522
101303.1347
101299.5996
101294.392
101279.9394
101261.4954
101254.3123
101255.5894
101255.6969
101259.2693
101269.2494
101280.4118
101287.9394
101291.818
101299.7897
101308.8561
101313.8121
101314.0197
101312.8959
101311.8192
101309.2178
101305.2689
101301.6836
101298.4716
101286.4578
101265.3355
101257.9541
101261.3221
101261.1602
101262.7212
101271.9108
101284.5211
101291.3162
101290.9353
101295.4354
101304.4371
101311.2579
101311.386
101308.2425
101307.6073
101308.4116
101307.3773
101303.7171
101298.1094
101287.0056
101271.2848
101264.2127
101266.0889
101267.4608
101268.2238
101274.8947
101286.0318
101293.6862
101293.178
101293.9119
101299.3488
101306.0468
101306.9504
101303.7055
101304.1323
101307.7796
101308.9557
101305.092
101293.9703
101282.2583
101276.7515
101270.9672
101270.0486
101273.6208
101275.6131
101278.7111
101285.1769
101293.9125
101297.1506
101295.4567
101295.1723
101299.9653
101301.2034
101299.2882
101301.2901
101306.9605
101309.2339
101305.4983
101290.7673
101279.5953
101281.4549
101277.5531
101274.8663
101278.9004
101283.3071
101284.0634
101284.3675
101292.1327
101298.9281
101297.6357
101293.2298
101294.6454
101295.5049
101295.6311
101299.1318
101305.3502
101308.1431
101304.8877
101292.073
101282.2726
101284.7853
101283.6028
101280.8146
101282.5677
101288.3457
101289.2779
101286.1776
101290.2057
101296.8265
101296.6625
101291.7452
101290.7782
101291.3107
101293.3916
101297.4533
101302.5289
101304.746
101302.9881
101296.7571
101289.2178
101286.8665
101288.3257
101286.7471
101284.3414
101290.129
101293.4109
101291.3131
101290.8668
101293.0936
101293.5642
101289.8146
101287.9943
101289.2517
101293.0493
101296.6902
101298.953
101299.7006
101300.2336
101300.4356
101293.9341
101287.9287
101290.6944
101290.7399
101285.7876
101289.5531
101294.6344
101297.196
101294.4489
101291.5036
101290.5949
101287.7051
101285.9428
101288.5342
101293.6565
101296.4432
101295.5145
101294.7069
101297.7852
101299.98
101294.2662
101289.2871
101291.2254
101292.344
101289.1138
101289.736
101293.6287
101299.4821
101297.9092
101293.0046
101290.4045
101286.8331
101284.8409
101287.6789
101293.5187
101296.3387
101294.0137
101292.4959
101296.6688
101296.7195
101291.9655
101291.2356
101290.7423
101292.9024
101294.4534
101292.3156
101291.4408
101297.0802
101298.2036
101295.7668
101292.4579
101288.006
101285.0794
101286.3147
101292.1713
101295.9154
101295.261
101294.3685
101297.2949
101294.3909
101291.9009
101293.4897
101290.5887
101293.1092
101298.7995
101296.4453
101290.5301
101292.7135
101296.0667
101297.308
101294.9088
101290.6994
101287.3376
101286.3572
101290.7704
101295.4594
101298.1197
101298.7359
101299.156
101295.5276
101294.5025
101294.2129
101290.4337
101292.395
101299.0632
101298.2521
101291.6324
101291.2483
101294.3551
101296.7018
101295.04
101292.5918
101290.5289
101289.0765
101291.2498
101295.3609
101299.9485
101301.7478
101300.3961
101298.9539
101297.9346
101293.6204
101290.9852
101290.7866
101295.0401
101296.4378
101293.6333
101294.2979
101295.5003
101295.3475
101293.2395
101292.1762
101292.8374
101293.1945
101294.0802
101296.0078
101299.5311
101301.2324
101300.2675
101301.0742
101298.8743
101293.1083
101292.8433
101290.2559
101290.9527
101292.5961
101294.9354
101298.8068
101297.8981
101294.7463
101291.3206
101290.4463
101293.1949
101296.3613
101297.7244
101297.4616
101297.9823
101298.0634
101298.8241
101300.3937
101297.1242
101293.9545
101295.6824
101292.0557
101289.6189
101289.9752
101295.774
101300.613
101299.2173
101295.7972
101291.7415
101290.1388
101292.8038
101297.6537
101300.7871
101299.6025
101296.6835
101294.6937
101297.4423
101298.1987
101294.906
101295.7259
101298.64
101296.152
101291.7106
101290.6528
101296.671
101299.5749
101298.7622
101297.2389
101294.3998
101292.9168
101293.9113
101297.6113
101302.0263
101301.3885
101296.8928
101293.4477
101297.1315
101296.922
101294.9619
101297.2168
101300.9096
101299.9715
101295.8094
101294.442
101297.9757
101297.6392
101298.0064
101298.8478
101298.6815
101297.4337
101296.4178
101297.8976
101301.4228
101301.8376
101298.5314
101295.5103
101297.7972
101297.1937
101298.2268
101298.8989
101300.3465
101301.3849
101298.2637
101298.347
101299.0799
101297.9863
101299.0303
101299.8632
101300.108
101300.4149
101298.5519
101298.6447
101300.7078
101300.9398
101299.4437
101298.4791
101299.1589
101291.1927
101277.1839
101261.739
101255.1391
101258.1647
101262.7582
101263.8321
101271.3587
101281.0296
101289.5986
101301.8281
101318.8296
101327.5323
101321.8489
101314.7769
101319.1926
101324.9444
101322.4106
101312.7135
101303.0203
101291.8462
101275.8398
101259.6792
101253.9743
101258.217
101261.7133
101262.8942
101270.6326
101283.7018
101295.584
101303.9663
101313.9197
101322.5732
101324.4898
101321.7189
101322.5742
101322.6108
101318.0625
101309.3909
101301.8834
101293.7482
101276.9283
101263.6082
101259.1955
101260.3238
101261.2143
101262.5487
101270.8032
101287.8785
101302.1645
101305.2614
101307.2236
101314.6756
101323.7302
101326.6279
101324.3874
101319.0043
101312.7338
101306.188
101301.1487
101296.0224
101280.8079
101272.0965
101268.8785
101263.5462
101262.6864
101265.7244
101273.4979
101289.9204
101304.2085
101305.8355
101302.4847
101306.5019
101318.3447
101325.5843
101322.1608
101314.0449
101308.8129
101305.6159
101302.2297
101294.8503
101282.4003
101281.0043
101276.512
101266.4888
101266.1953
101274.0204
101280.3266
101288.5666
101300.3345
101307.3768
101304.2791
101302.5324
101311.2843
101319.0744
101316.1828
101309.2891
101307.5798
101308.6768
101305.4465
101292.2139
101283.0896
101284.6714
101279.4876
101269.5573
101271.4401
101285.4673
101290.1342
101286.0562
101293.7741
101308.8067
101310.6382
101303.9678
101305.9613
101310.0411
101308.6618
101305.9226
101308.6334
101312.4552
101308.2471
101292.1576
101285.476
101283.9957
101279.5138
101275.7644
101278.0571
101293.6719
101298.034
101287.3001
101290.081
101307.8071
101313.3873
101306.3453
101302.5277
101302.4198
101303.3205
101304.8444
101309.0206
101311.9523
101307.573
101295.0265
101289.0886
101282.0336
101281.6079
101284.8793
101284.9744
101294.1188
101299.0097
101293.0272
101292.4682
101303.7513
101309.4507
101304.8798
101299.4482
101297.7082
101301.4034
101305.5539
101307.1469
101305.996
101302.8734
101299.8537
101293.6755
101283.7446
101286.9951
101293.4281
101290.4481
101289.4364
101294.2617
101300.7143
101299.5188
101299.3867
101301.2301
101300.4138
101296.4678
101296.0243
101302.2685
101306.5549
101303.4918
101296.6943
101296.3133
101301.2413
101294.9934
101288.8825
101293.3433
101295.9032
101293.5852
101286.3231
101290.3075
101306.1345
101306.3018
101297.984
101296.0612
101296.7712
101294.3546
101295.6134
101302.2706
101305.9267
101299.9894
101290.0365
101292.6938
101297.6807
101293.3541
101295.1171
101295.5424
101292.4717
101294.4705
101290.026
101291.0129
101305.1166
101307.746
101299.6337
101296.5184
101296.5041
101293.6972
101293.8161
101298.9833
101302.8005
101299.1615
101291.7503
101294.5393
101293.0848
101291.0302
101297.2292
101293.5451
101287.7211
101295.0039
101298.3257
101296.1823
101298.9404
101301.7238
101301.5672
101299.9075
101298.36
101294.38
101290.1589
101292.6659
101297.6032
101300.8342
101301.4123
101301.2842
101293.1367
101293.0079
101295.7242
101290.6691
101286.584
101296.4844
101305.5007
101301.4569
101291.9895
101293.1757
101301.243
101301.9335
101299.5758
101295.4337
101289.2697
101288.194
101293.2047
101302.9
101311.1484
101307.5683
101297.6344
101297.8036
101293.0175
101290.0108
101289.4113
101297.9864
101305.804
101302.2643
101290.4301
101289.9231
101299.6105
101300.3161
101297.6135
101295.7935
101292.7478
101289.3494
101291.3396
101301.6911
101312.7426
101308.123
101303.5528
101301.8211
101292.8281
101291.6621
101292.8248
101298.0203
101299.8057
101298.6105
101293.8705
101293.5304
101299.6016
101297.3226
101293.0828
101294.602
101297.7565
101295.4157
101292.6742
101297.1405
101304.7393
101303.292
101303.9631
101300.5301
101294.7479
101294.5596
101295.0522
101297.8005
101292.7352
101293.9797
101298.1497
101300.6555
101301.5255
101295.6574
101289.6693
101292.2629
101299.2464
101301.3179
101296.4989
101293.3591
101293.9525
101296.888
101299.1545
101295.4924
101296.6812
101297.3653
101296.7167
101296.9393
101290.0571
101291.7332
101299.0911
101304.3739
101303.0242
101296.1967
101291.1152
101290.4639
101296.5775
101303.7818
101301.7728
101294.4245
101288.2032
101293.0471
101294.7224
101291.8456
101296.7709
101299.9339
101299.3126
101296.2949
101290.6045
101292.8966
101298.9014
101303.7963
101300.8769
101297.0257
101295.5594
101291.5817
101293.502
101303.6274
101306.3789
101299.1432
101289.2635
101293.3435
101295.2924
101292.4582
101295.651
101301.3923
101301.6186
101297.043
101294.4643
101295.6274
101299.3931
101300.6125
101297.3871
101298.922
101301.0855
101295.2769
101293.8594
101301.862
101307.1398
101303.7724
101295.3698
101296.276
101297.6768
101297.1149
101296.6146
101300.9081
101301.7664
101299.4366
101298.7137
101298.3768
101299.4735
101299.5963
101297.7724
101300.799
101302.6343
101298.4725
101296.8418
101300.3667
101303.676
101302.92
101299.9526
101298.8829
101302.6368
101293.0078
101258.1123
101249.8879
101267.8279
101274.5307
101276.531
101283.0806
101289.8307
101298.9672
101313.135
101326.2416
101332.807
101333.777
101329.5947
101323.8651
101322.8643
101323.8569
101321.1328
101310.1306
101297.5983
101284.0361
101265.2032
101256.8809
101263.8001
101272.1564
101274.9746
101280.4172
101292.0228
101307.9479
101318.4096
101321.8071
101326.5882
101333.7859
101332.409
101327.2333
101323.6043
101322.4975
101318.4036
101308.2744
101291.362
101273.1371
101274.5424
101268.7612
101263.113
101269.8697
101273.1467
101277.8968
101295.772
101315.7748
101321.5155
101317.6441
101320.4525
101329.9425
101332.7174
101330.2087
101324.2554
101319.2487
101312.941
101304.9507
101286.4651
101266.3268
101283.1054
101282.1699
101266.2415
101268.7781
101274.4023
101280.9623
101297.8816
101315.0567
101320.5713
101317.6772
101317.8056
101323.4279
101327.8956
101329.6964
101323.3247
101315.3284
101307.912
101301.5216
101285.5775
101269.6303
101289.4919
101289.6044
101271.2605
101269.1067
101281.7548
101292.5238
101297.5515
101304.9534
101317.3227
101322.3999
101318.9497
101315.5163
101319.6816
101325.8083
101320.5545
101311.7783
101305.0212
101301.0572
101291.9174
101284.1491
101289.635
101289.7079
101277.4393
101271.4946
101293.2479
101309.7904
101298.2506
101292.8217
101313.765
101327.1251
101321.5322
101311.3314
101312.647
101319.6283
101316.3478
101309.0433
101305.164
101303.2687
101300.7196
101298.3395
101283.076
101283.2448
101285.5121
101278.5695
101299.1498
101318.882
101304.7732
101291.5744
101308.5272
101324.7249
101321.9464
101310.9384
101308.5189
101314.0145
101312.511
101307.6864
101305.7476
101304.2992
101304.5216
101302.5523
101276.8375
101279.0637
101294.1462
101290.8536
101297.0377
101311.5276
101311.8608
101301.9939
101306.165
101317.0284
101318.1921
101310.0426
101305.7213
101310.0287
101310.339
101307.3084
101304.4215
101302.5627
101303.7626
101298.9434
101281.36
101282.78
101300.9582
101303.8656
101291.103
101295.7501
101314.3844
101314.6237
101307.1442
101307.6646
101311.5139
101307.4895
101302.9496
101307.4417
101309.9941
101307.4394
101301.1004
101298.4967
101298.6353
101294.8213
101295.2109
101292.8
101300.6391
101309.9926
101291.1415
101286.8514
101312.3269
101319.8833
101309.4065
101304.0865
101307.7558
101305.3662
101300.6645
101303.7259
101308.2156
101307.574
101299.425
101296.3036
101293.1928
101293.8231
101308.1756
101298.6942
101293.3486
101305.5437
101299.1975
101293.5043
101306.9572
101315.2211
101309.6837
101305.0831
101308.0978
101305.3372
101298.7882
101298.6321
101303.6878
101307.7239
101302.8732
101298.8049
101292.4209
101295.027
101306.7931
101298.4931
101285.9885
101295.5088
101308.2715
101308.4621
101303.581
101305.0208
101306.2835
101306.3556
101309.3012
101306.132
101297.3543
101292.8594
101296.4439
101306.3134
101309.6927
101305.3812
101298.2245
101298.3645
101294.2842
101296.2416
101286.4549
101288.827
101311.0457
101319.1425
101302.7362
101295.2091
101300.9024
101304.7927
101306.6826
101304.6829
101298.0149
101290.864
101291.2205
101302.7165
101314.0474
101310.3298
101303.7019
101300.5458
101286.6691
101295.8957
101294.0568
101290.5444
101304.2519
101316.2295
101302.8654
101292.308
101298.8141
101302.5463
101299.427
101299.6057
101300.1719
101294.3013
101290.5753
101297.3818
101310.4385
101309.4741
101306.7233
101299.6952
101291.7754
101297.689
101301.5456
101298.0561
101294.128
101303.967
101300.6813
101295.8472
101304.0012
101302.2651
101292.1676
101293.0755
101301.7822
101301.7196
101294.5633
101292.5269
101300.0759
101302.9521
101302.1914
101296.63
101301.0576
101298.9852
101303.09
101305.7671
101292.6511
101293.4013
101295.3972
101302.0859
101310.9615
101304.2813
101291.587
101289.8119
101299.4257
101305.5175
101300.2573
101292.1681
101291.8864
101296.2546
101294.4281
101293.6498
101304.9123
101297.8115
101299.8354
101307.5988
101299.1851
101289.9716
101290.2125
101304.2109
101311.4184
101305.2804
101297.4426
101291.4395
101294.2183
101303.2256
101304.1111
101297.8602
101292.5105
101294.6234
101292.4288
101294.2928
101301.0605
101296.3357
101295.6963
101304.7542
101303.5802
101292.4494
101292.9245
101304.5455
101302.3896
101301.1743
101304.275
101295.9371
101290.5562
101298.6416
101305.4132
101304.4832
101297.7561
101296.8104
101298.934
101296.9009
101294.0587
101296.2547
101295.5361
101301.172
101303.6489
101296.3976
101300.0678
101301.686
101292.4902
101295.8482
101306.3895
101301.3736
101292.6362
101295.83
101304.109
101306.7336
101302.9797
101299.6249
101303.0619
101298.6307
101293.2106
101299.6074
101298.4628
101300.6752
101302.0912
101298.6497
101300.526
101299.3264
101294.7675
101299.123
101303.465
101301.7046
101297.7408
101297.1413
101300.5484
101304.27
101303.6057
101300.3713
101310.8102
101303.6666
101257.574
101253.1929
101271.851
101275.3462
101289.2047
101306.0715
101308.0097
101311.4179
101318.7444
101326.8786
101339.2756
101346.0006
101342.4097
101327.9587
101314.3413
101316.8211
101322.9952
101315.1296
101303.4478
101292.5194
101281.1722
101270.5694
101267.8557
101275.3695
101288.4598
101299.8098
101303.0386
101312.0529
101326.0295
101329.209
101330.0226
101334.8616
101336.0808
101330.2096
101322.8301
101321.2305
101321.8531
101313.3239
101290.491
101272.4864
101295.6064
101282.3681
101267.4426
101279.3445
101287.8985
101290.2123
101298.3374
101315.6874
101334.6038
101333.1167
101324.4899
101325.1568
101328.8144
101330.6641
101328.8984
101323.7358
101317.3561
101308.6838
101277.0454
101254.4505
101292.4452
101284.7347
101273.3358
101285.5387
101286.0282
101288.0543
101305.9181
101322.1553
101335.8857
101337.0459
101328.4626
101321.8014
101321.867
101328.0518
101330.2115
101322.1785
101309.904
101301.7738
101279.3138
101262.7454
101285.8349
101284.8562
101284.6262
101289.107
101287.4333
101297.9213
101317.5469
101321.0636
101326.0708
101332.2153
101334.1108
101324.4717
101318.2491
101323.1941
101325.7198
101317.4147
101303.1787
101296.8571
101298.5357
101294.9903
101283.7604
101287.4231
101296.7019
101288.1161
101290.2241
101313.4536
101326.7442
101316.6623
101308.6974
101317.2564
101333.4504
101329.3431
101319.2845
101317.9951
101317.7214
101310.8078
101299.7694
101296.4042
101316.3007
101318.3184
101280.9171
101287.9703
101303.0504
101290.7055
101290.4593
101319.9279
101333.4192
101319.4839
101299.3862
101306.4938
101329.5988
101330.3316
101319.5847
101313.4063
101310.4325
101306.0624
101300.6795
101299.1612
101316.0312
101314.7612
101280.01
101284.9325
101303.9328
101302.18
101292.8373
101313.1417
101333.2333
101327.9282
101308.1518
101307.3511
101323.682
101326.3538
101316.1123
101308.9511
101305.458
101304.6632
101304.0323
101302.3487
101301.0417
101295.3094
101289.5565
101286.1176
101302.804
101317.4415
101301.3944
101299.2543
101322.9373
101330.97
101323.2759
101313.2097
101315.2698
101316.8195
101310.0657
101305.6763
101304.7317
101306.2163
101306.5823
101303.7481
101287.3322
101285.3087
101305.4075
101293.2825
101300.2877
101324.1183
101311.5442
101294.949
101306.1066
101322.6736
101330.1233
101317.2323
101308.0077
101307.5642
101304.8418
101303.9974
101305.8317
101308.5607
101307.6009
101302.5094
101286.2914
101293.3028
101317.0187
101298.95
101296.9071
101315.1337
101316.4391
101305.6605
101301.274
101311.358
101323.6365
101315.4839
101308.6523
101305.4865
101302.138
101300.9121
101303.5959
101308.6711
101308.507
101302.108
101297.8607
101307.8022
101309.4983
101301.6901
101295.4179
101298.09
101313.5726
101324.3053
101314.3055
101305.4395
101305.1339
101308.9693
101315.7081
101311.1376
101302.1015
101296.203
101296.7692
101304.7526
101307.9134
101303.187
101312.4812
101312.5699
101289.2411
101301.5686
101299.7836
101286.3186
101301.6542
101330.6457
101331.7157
101307.6838
101289.6543
101300.1898
101316.9741
101314.1355
101303.4425
101294.3399
101291.4736
101298.9034
101305.3852
101304.4976
101313.5502
101305.2867
101282.0729
101302.8758
101308.3428
101288.6791
101287.7994
101321.0596
101333.848
101312.1783
101290.0907
101296.5473
101307.7466
101307.9141
101302.6782
101296.4485
101291.9383
101294.6298
101301.006
101304.6108
101303.3193
101293.0066
101295.9348
101304.0156
101311.2901
101302.1108
101286.9481
101303.5887
101314.6883
101310.9831
101305.6328
101301.5786
101298.254
101297.6217
101300.6777
101301.3519
101297.1822
101293.5527
101296.4845
101301.8914
101291.9713
101288.5303
101311.7197
101303.6654
101306.74
101311.0789
101300.3494
101295.6863
101289.6852
101303.611
101319.3916
101310.9845
101297.2545
101292.9818
101298.2516
101303.1411
101301.6034
101296.2748
101296.5042
101299.5856
101288.3271
101293.3862
101314.3845
101299.4998
101298.079
101310.8861
101316.053
101297.856
101278.7229
101295.6704
101317.8898
101315.2855
101304.6463
101295.8786
101295.9555
101299.1443
101301.5939
101302.0554
101302.2512
101300.5169
101296.0377
101303.4938
101305.6657
101294.9597
101289.4752
101307.0528
101319.7703
101303.0496
101288.2509
101296.29
101304.3984
101308.6713
101308.434
101301.3523
101294.9063
101293.2639
101298.7715
101305.7
101307.8778
101302.5231
101309.2734
101306.5858
101294.9739
101293.4399
101288.6949
101300.3351
101309.7829
101306.2407
101305.3344
101297.6978
101288.594
101296.4224
101305.5158
101305.2838
101297.7577
101292.1002
101296.5828
101303.8588
101307.7354
101302.9363
101312.4778
101301.6646
101291.3445
101299.3853
101295.8805
101299.6328
101302.203
101301.8113
101304.972
101298.2547
101291.3237
101297.8167
101302.0098
101304.0828
101300.4359
101295.2154
101296.5234
101301.7986
101304.2385
101301.7999
101303.0444
101300.436
101260.9669
101257.9502
101285.4089
101271.0549
101277.3094
101337.6807
101362.1885
101307.6848
101282.7593
101340.9727
101381.5459
101332.4051
101305.2742
101336.3519
101337.4343
101319.9872
101311.1096
101308.3
101308.2035
101300.4971
101300.2557
101293.5493
101277.1274
101272.9443
101292.1331
101323.4304
101322.7864
101306.5876
101316.2519
101343.6875
101344.4234
101329.6486
101326.9057
101329.948
101325.1431
101314.6067
101310.9344
101310.2791
101299.1206
101282.9729
101315.8042
101303.8108
101273.7113
101288.2449
101306.7432
101297.9725
101286.8427
101320.3019
101350.2365
101333.1486
101311.7367
101332.4696
101344.8233
101321.5756
101312.7498
101313.5088
101314.075
101310.4116
101279.2312
101258.4178
101290.4951
101281.2151
101282.9053
101313.7625
101313.0396
101276.6559
101280.3604
101349.7125
101372.3912
101314.5351
101296.0686
101339.8572
101349.8658
101312.7228
101307.3455
101319.5789
101318.3135
101308.0265
101279.5649
101271.0201
101270.6544
101266.7293
101300.1433
101329.348
101306.8519
101272.0297
101299.4802
101363.8123
101369.6675
101307.4756
101304.6198
101348.1611
101345.7881
101306.7441
101308.6053
101323.4775
101316.4213
101301.6818
101303.333
101313.0345
101278.3028
101277.2514
101310.7594
101321.4866
101291.9162
101277.2064
101322.5208
101360.5837
101344.7253
101305.8843
101315.4938
101350.4935
101340.9725
101306.6332
101311.2531
101319.4372
101307.0917
101294.9504
101324.9977
101333.8469
101290.2139
101295.2608
101308.886
101309.3279
101289.0058
101285.4233
101327.9797
101356.1969
101308.394
101301.1348
101315.3064
101343.7426
101337.5688
101309.5953
101310.3582
101310.4537
101297.811
101292.7157
101317.9724
101314.5841
101299.8183
101304.8824
101300.6538
101307.5852
101306.3262
101298.0826
101321.3238
101354.6435
101326.4401
101301.3545
101310.1045
101332.4574
101333.3184
101309.4406
101304.5079
101302.8031
101297.0679
101297.4978
101291.178
101280.6164
101307.2571
101305.3787
101294.394
101318.4033
101331.6988
101311.7697
101307.3521
101340.2382
101353.9404
101328.6932
101303.8099
101320.3398
101325.984
101304.842
101297.8696
101300.5347
101304.2266
101305.1726
101274.3026
101270.3189
101309.5181
101301.5783
101296.2419
101326.468
101344.808
101319.196
101292.1251
101313.8401
101356.4265
101337.1172
101298.4272
101310.2558
101317.3253
101300.1933
101295.058
101301.7324
101311.232
101309.011
101283.373
101292.6783
101307.9567
101299.4561
101304.8551
101322.4451
101334.4333
101320.6744
101294.2251
101308.3362
101339.6192
101323.2988
101296.4802
101304.7416
101310.7958
101299.7589
101296.2082
101301.8433
101310.2829
101306.8275
101308.0595
101323.3911
101300.2972
101301.2873
101313.5683
101311.4005
101309.8219
101318.7013
101313.6353
101315.4596
101320.4444
101307.9272
101301.0627
101305.2054
101308.3036
101302.9849
101298.8437
101298.6164
101301.0852
101299.4897
101326.5083
101327.7628
101290.4943
101303.758
101320.0886
101306.0306
101287.4745
101312.1417
101337.7149
101329.6141
101305.0754
101296.4302
101306.9154
101308.727
101306.9188
101305.3043
101301.6051
101294.5897
101290.0627
101292.8023
101316.1342
101308.4136
101292.5501
101305.6299
101321.8787
101310.5934
101282.1822
101307.482
101347.2562
101335.7238
101295.0714
101293.7416
101312.9897
101310.6667
101300.5364
101302.7738
101303.529
101295.1151
101286.0354
101292.0695
101287.8347
101285.8203
101309.3683
101304.7674
101311.6809
101315.3142
101298.08
101305.8242
101328.3509
101323.9897
101297.0655
101301.2278
101318.9607
101308.791
101291.3551
101295.1683
101303.7705
101301.0282
101292.3808
101296.0601
101275.6763
101282.8999
101321.8235
101303.994
101297.8512
101309.8422
101319.2735
101312.7027
101298.3258
101301.7826
101303.9113
101312.2836
101320.931
101306.575
101287.0541
101287.4728
101299.8006
101306.7007
101303.4097
101302.1126
101289.1634
101298.4429
101314.6048
101303.2031
101294.8414
101301.4829
101325.4638
101318.046
101285.3385
101287.5023
101304.3846
101313.9169
101314.9525
101305.7306
101294.0143
101285.854
101292.2365
101305.6405
101311.0091
101305.7748
101311.1173
101318.0369
101301.0848
101302.1287
101298.8575
101300.297
101316.4014
101314.1622
101292.892
101292.7496
101307.8556
101309.0541
101299.6722
101305.6473
101308.3405
101290.3475
101284.0908
101299.8139
101310.8386
101304.6833
101323.6839
101318.3815
101296.0186
101301.123
101302.6771
101299.8023
101297.2059
101306.6209
101311.1719
101304.5331
101307.4717
101298.9361
101286.8298
101303.7988
101316.6008
101298.7872
101285.1111
101292.1662
101301.953
101301.3194
101317.5625
101304.7925
101294.2068
101300.6435
101303.9855
101299.9162
101294.9256
101303.6316
101308.3362
101301.5095
101301.5703
101297.6616
101290.9989
101302.0586
101310.5494
101300.8548
101292.4981
101293.8693
101297.8082
101300.149
101294.0492
101292.3574
101271.9033
101255.3592
101318.0971
101305.3649
101258.9359
101297.1851
101344.7617
101337.0953
101319.6749
101325.6707
101340.8742
101336.1241
101316.3698
101320.1814
101341.756
101331.6698
101301.5362
101295.4075
101308.0821
101305.5151
101304.1441
101299.7211
101288.6197
101284.1915
101282.0244
101316.863
101341.9815
101328.2941
101318.0913
101331.0946
101339.7419
101329.7307
101320.2958
101319.1874
101320.1092
101315.9486
101302.6818
101298.7077
101304.9473
101297.1561
101314.3862
101316.5265
101274.1065
101285.7729
101318.161
101330.9673
101331.9316
101320.4073