/*--------------------------------*- C++ -*----------------------------------*\
| =========                 |                                                 |
| \\      /  F ield         | OpenFOAM: The Open Source CFD Toolbox           |
|  \\    /   O peration     | Version:  5.x                                   |
|   \\  /    A nd           | Web:      www.OpenFOAM.org                      |
|    \\/     M anipulation  |                                                 |
\*---------------------------------------------------------------------------*/
FoamFile
{
    version     2.0;
    format      ascii;
    class       surfaceScalarField;
    location    "7.6";
    object      phi;
}
// * * * * * * * * * * * * * * * * * * * * * * * * * * * * * * * * * * * * * //

dimensions      [1 0 -1 0 0 0 0];

internalField   nonuniform List<scalar> 
91025
(
-1.999762972
0.163591188
0.07353273303
-1.72674009
0.08502383399
0.3709876349
-1.220022953
0.1358439153
0.1811552381
-0.7404331235
0.04205413359
0.3357291525
-0.3034291461
0.2117696948
0.4150202208
0.1318022338
0.09039499777
0.5492593041
0.4495005827
0.1287409561
0.4746895814
0.722783383
0.1534382655
0.563724232
1.009741682
0.4422550759
0.602377926
1.355909217
0.4007514704
0.6313551797
1.479674685
0.01086910816
0.4435639638
1.15280134
-0.4015840319
0.3163919318
0.6999578737
-0.2966566337
0.3290605098
0.6154623579
0.1057566373
0.4348296436
0.6648201823
0.3575620176
0.3985050371
0.5063326406
0.1103316033
0.1706299035
-0.02585355361
-0.1739896062
0.03689970214
-0.4919994151
-0.3729776999
-0.02322811258
-0.8646334906
-0.3284997451
0.03662145312
-0.2048435312
0.0003773375939
-1.980319362
0.2804941176
0.02770448335
-1.710593558
0.177558735
0.309815427
-1.216426385
0.4076990645
0.2584417329
-0.7221844636
0.2358207769
0.4155665153
-0.2958352534
0.4995080635
0.3922975314
0.1348033999
0.2920182961
0.540451099
0.5092863883
0.391312076
0.4808921459
0.8194404112
0.3213489264
0.5345058982
0.9943659983
0.6780743243
0.5169568949
1.177174656
0.5496701093
0.568969363
1.295261409
0.05517644313
0.4769970538
1.177037826
-0.5318787482
0.3875074716
0.8832325545
-0.3921595252
0.3370544775
0.7246938576
0.07994508325
0.3624044022
0.5902112144
0.3813042989
0.3273407864
0.3358177086
-0.01536696215
0.1637650165
-0.1295240246
-0.3376814938
0.07670832966
-0.5013698149
-0.5167562135
0.01856980485
-0.7622019316
-0.3504822396
0.06774319383
-0.2195824916
0.01456581468
-1.91110869
0.2886614357
-0.0469349648
-1.634672078
0.2218302995
0.2108379041
-1.212550943
0.6924689163
0.2921479709
-0.7490791581
0.4700134999
0.481358814
-0.2971448545
0.7989773982
0.354210031
0.1266921889
0.5830849028
0.5143958616
0.557186767
0.8014604878
0.4797308375
0.8957390523
0.5268609865
0.4972207904
0.9703443247
0.7056126727
0.4017045162
0.9514241454
0.4570213354
0.4875610842
1.053133885
0.1822088431
0.4967738975
1.182730918
-0.3340709718
0.4817692364
1.117603318
-0.2413229546
0.3420790096
0.8703262109
-0.03124486264
0.2706672705
0.4844391607
0.1125506343
0.2214406333
0.1441184647
-0.3222528035
0.1557896097
-0.2229242692
-0.4660672486
0.1200692044
-0.4691235364
-0.441472651
0.06006499078
-0.6383259476
-0.0874818958
0.08050346228
-0.06127244086
0.0167557703
-1.773949559
0.2428664131
-0.1056768237
-1.54093111
0.1834630466
0.1216977296
-1.167876403
0.8740000207
0.2823119609
-0.7374976769
0.6385194926
0.4995392736
-0.274141776
1.069036565
0.3200273387
0.1283107782
0.8655531888
0.4751225776
0.5373545058
1.25549534
0.4687887644
0.8663864603
0.7712643141
0.4778489686
0.8987004611
0.6683148342
0.3274670596
0.7920720626
0.2910081203
0.4008216187
0.886861944
0.3916538928
0.4797493847
1.152074884
0.09239106582
0.5382590265
1.219383104
0.06265640378
0.3444325944
0.8880757659
-0.1558886756
0.1986120043
0.3619029421
-0.2086422958
0.1561281324
0.05154778493
-0.6115050046
0.1625624724
-0.1911305485
-0.4739504525
0.1667492157
-0.3618275091
-0.3076022017
0.06917477811
-0.5645950198
0.1906424413
0.05291904494
0.08242148897
-0.009913828884
-1.645092085
0.2472938295
-0.1008693627
-1.420576571
0.1041879841
0.1296619102
-1.091074523
0.9729040979
0.231275395
-0.6923723194
0.7343637109
0.4665415907
-0.231458739
1.316394818
0.2923874437
0.1399647947
1.037366471
0.420712076
0.451125916
1.597102552
0.4198504484
0.7074125506
0.9797343461
0.4791017311
0.8073756737
0.7461771787
0.2870863749
0.755433437
0.2136019881
0.3447042143
0.8320224003
0.584121356
0.36128202
1.070595271
0.429917258
0.5049186161
1.150137203
0.3294367273
0.3080211065
0.7900360464
-0.2771911445
0.1641371316
0.2679070395
-0.3822402191
0.1265613566
0.06938327801
-0.662452579
0.1872565016
-0.04232022036
-0.3330229601
0.190127107
-0.2035696397
-0.2704191433
0.04787889034
-0.541943865
0.2083985041
-0.0111261432
0.0295191469
-0.05468540909
-1.49199081
0.3680143185
-0.02919492709
-1.26304604
0.1005720819
0.2231632899
-0.9382166508
1.066674099
0.1777162289
-0.593325239
0.8270324873
0.4068098501
-0.1660028889
1.549424336
0.2815954526
0.1721039104
1.101809442
0.3675494223
0.329606943
1.731892719
0.3561085269
0.4855717901
1.092818819
0.4670949677
0.680922506
1.015389946
0.301873752
0.7921922808
0.3173561403
0.2976916554
0.8545016731
0.6802344031
0.2085878345
0.9438431731
0.4213748266
0.3727537202
0.9294920778
0.3617779486
0.2460518583
0.6236993794
-0.3943779522
0.1574926915
0.2218601208
-0.3340284894
0.1402839802
0.1318573825
-0.466823159
0.2023586723
0.08929606453
-0.1124739359
0.1866663923
-0.09082093599
-0.3645084852
0.02146978369
-0.5546229027
-0.08887285925
-0.06284222368
-0.2070670424
-0.08368208709
-1.364342348
0.549539961
0.02990338268
-1.147383603
0.153468577
0.301050183
-0.7900387353
1.20057904
0.1089550557
-0.4855760411
0.921062502
0.3145012906
-0.1147377011
1.749738311
0.2482997451
0.1929201758
1.097447402
0.3344945655
0.2414632908
1.679967316
0.259666207
0.2998240103
1.057447648
0.4228589728
0.5321153963
1.38650989
0.3055817953
0.7791884457
0.5464226511
0.3060848178
0.8684430633
0.7673701086
0.06428702357
0.816506931
0.178363684
0.2478913449
0.7050357572
0.2207771265
0.1705325354
0.5120665666
-0.5098408934
0.1770187642
0.2505895821
-0.1802617491
0.1474125971
0.1876295838
-0.2647073863
0.18013827
0.1156792802
0.05143520574
0.1491970458
-0.06026769919
-0.5272653473
0.01483834019
-0.4947673913
-0.4734000361
-0.06092246491
-0.4733719715
-0.07587572851
-1.166913476
0.6891090447
0.03190303971
-0.9451657792
0.2154904051
0.2941344934
-0.6066429106
1.368303456
0.06616452994
-0.3654956925
0.9665583546
0.2323068384
-0.08964325542
1.848953925
0.2112760079
0.1745779914
1.080475587
0.3344607282
0.2017010716
1.610283964
0.1980729916
0.1972964166
0.9521881027
0.3288367195
0.3696034852
1.672205374
0.2846476644
0.6324302531
0.7800730218
0.2946486242
0.7623733944
0.9140011543
-0.01299687804
0.6831393142
0.007236139071
0.1640356534
0.5583822382
0.1565322591
0.1391322185
0.4927061764
-0.552024869
0.1833677381
0.3282634649
-0.07069069935
0.1383584347
0.1827621191
-0.2433620595
0.11146997
-0.002357208668
0.04264908415
0.09235352829
-0.157365342
-0.6581958433
0.03214818564
-0.3822368348
-0.6186644342
0.007008660015
-0.5539460788
-0.02757479686
-0.9867138599
0.7235883936
-0.02455932052
-0.779380326
0.2217055149
0.2126145472
-0.489037231
1.478210168
0.04776338629
-0.3099389136
0.8562930578
0.1709655477
-0.1123779044
1.808190617
0.1471430648
0.1143309617
1.059437712
0.347231073
0.2080032549
1.6334372
0.157971836
0.2080050948
0.8449635795
0.2335650911
0.2631988698
1.729468986
0.2076838886
0.4152052575
0.8511642755
0.302497609
0.5548056713
1.095358734
0.04051002366
0.5258494527
0.01498225326
0.1761674931
0.4854254104
0.2837799474
0.1424678676
0.5259592906
-0.4963844253
0.1995069368
0.4085107882
-0.09115391469
0.10252296
0.1540535321
-0.5012543686
0.0410801951
-0.1680611098
-0.1611556167
0.04174482794
-0.2467726352
-0.6787855399
0.06904152154
-0.2023813038
-0.3699838466
0.09917500471
-0.4056553161
0.01938554882
-0.7318865063
0.6991940816
-0.0783810316
-0.5422531635
0.190311114
0.1461523948
-0.353939588
1.48575147
0.06938240079
-0.2417917455
0.6418530071
0.1573170578
-0.09005815618
1.677380379
0.1018760387
0.07131641068
1.022485438
0.3340170683
0.1980157132
1.743844527
0.1646360232
0.2284204449
0.7742405341
0.1773132873
0.1750967769
1.566863828
0.1177462405
0.2053327196
0.725360993
0.234358751
0.3193900521
1.202134357
0.08055932636
0.3537900695
0.1359098222
0.1731458925
0.3791241142
0.5188460566
0.1542947671
0.4744140854
-0.3729459712
0.1894950207
0.3891666329
-0.1843216007
0.0836975293
0.1007171741
-0.8625863285
0.004298040487
-0.2440552851
-0.4220811608
0.02689007264
-0.2603671836
-0.5786088154
0.1018429723
-0.0841982269
0.06089128659
0.1514628677
-0.1758343131
0.04357174439
-0.5581769801
0.7131237705
-0.09030645148
-0.4203021216
0.1312127165
0.1185946178
-0.3030514252
1.417490245
0.07300019286
-0.1990887193
0.4260374688
0.1556559181
-0.0489426294
1.565930845
0.05336079047
0.04264688592
0.9006604021
0.2520456306
0.1494613469
1.783624422
0.142992051
0.2117405447
0.6709037065
0.1719912505
0.149882703
1.370450452
0.05442116866
0.09893932947
0.493951871
0.1702785504
0.1612961511
1.197859687
0.08320579793
0.2045711606
0.1817199097
0.1710475357
0.2364989463
0.6735416429
0.1394283549
0.3235134633
-0.2806832807
0.1779475271
0.2985750679
-0.1781015257
0.08974344912
0.1209394433
-1.033992066
0.02019009284
-0.1122454242
-0.4984523635
0.0399890435
-0.1055292798
-0.4549734167
0.1027431082
-0.00281426476
0.3837656246
0.1328156322
-0.05371239736
0.03377458448
-0.3189294931
0.801010788
-0.05718097017
-0.2575011771
0.07750284761
0.1186684833
-0.2014456825
1.351483907
0.0412264359
-0.08199347596
0.2994348802
0.1640155428
0.0635402247
1.496285674
0.03204800801
0.0505565298
0.6506329921
0.1248795806
0.06347967837
1.632852833
0.1137141626
0.1153248816
0.503750309
0.2000297384
0.1000964331
1.221778963
0.0695399967
0.04146686566
0.2889510854
0.1137220902
0.04821826777
1.094600385
0.07129927845
0.06109308791
0.10361839
0.1305999057
0.04890385983
0.6330992417
0.1254148307
0.09036466143
-0.2566357919
0.1505851265
0.1209083814
0.006686573685
0.1351211749
0.1409270011
-0.8542922383
0.07363769202
0.08656004041
-0.3223054146
0.06869280347
0.07093882623
-0.395607648
0.06440369466
-0.02602401836
0.3732611678
0.05972601441
-0.1182636492
0.005117318292
-0.1867967347
0.8801602806
-0.02268660397
-0.2220073714
-0.03511431672
0.08086655041
-0.1884414572
1.298621621
-0.04059631474
-0.04188141848
0.2144508866
0.133082928
0.1115259027
1.384849438
0.001367231414
0.03532029626
0.2581639929
0.01495927983
-0.02116906373
1.276596491
0.02943798892
0.03043978206
0.2498411097
0.1974503788
0.0673649768
1.155810599
0.07923135281
0.03297450006
0.1863409434
0.08761743541
-0.00563332554
1.003110908
0.02700600792
-0.02622257157
-0.04154893198
0.09429857125
-0.0570775983
0.4962722279
0.08441636658
-0.05379502601
-0.3129612691
0.1219843592
0.02094108515
0.258757122
0.1485407249
0.176733935
-0.4602080178
0.1176274687
0.283755203
0.0003887148072
0.07976771007
0.2458368487
-0.4428916587
0.01151749085
-0.0134741264
0.06908852561
-0.008573383859
-0.3323823903
-0.01659292364
0.04060472665
0.8739027046
-0.02430671264
-0.08619696095
-0.2627016531
0.02772507396
-0.100553287
1.189988361
-0.08431816771
0.01051223831
0.06744995829
0.1092214615
0.1248436244
1.185298352
0.02056617927
0.03473127321
-0.1648906625
0.00455018389
-0.03364085354
0.9025161319
0.009462954785
0.0017572522
-0.01701804064
0.1646821273
0.02339545052
1.055791672
0.09134164649
-0.02539666345
0.1069783591
0.06958566021
-0.1178651472
0.9096400059
0.03633728404
-0.1379139055
-0.1667732139
0.08243264252
-0.1354910105
0.3943412906
0.08089194564
-0.1182163
-0.3817645424
0.09504919964
-0.06040439143
0.4049938998
0.138610127
0.1193024778
-0.1410137319
0.1132313109
0.2678366638
0.2894186653
0.06777620692
0.2393206509
-0.508984985
-0.0256521456
0.0001865550507
-0.2414460031
-0.03495455391
-0.5145997169
-0.01186016502
0.09550952085
0.7529432897
-0.05623067785
-0.06205950509
-0.5622171137
-0.03956453306
-0.1236889878
0.9862820015
-0.09199134905
-0.07204023529
-0.1771660289
0.0517643273
0.02401996532
0.9782770432
0.02791933391
0.002781529958
-0.4462649481
0.04088373594
0.009011939743
0.6903183166
-4.81648626e-05
0.04628616724
-0.250713122
0.09403807983
0.03818930017
0.8799561757
0.01454668304
-0.06910013269
-0.0665394862
0.0260810405
-0.2065860946
0.7763843765
0.03108220694
-0.2208484948
-0.2141720424
0.09947643664
-0.1256455266
0.4501051206
0.07879081806
-0.0400890826
-0.3610796446
0.07958739757
0.00258175063
0.4298273792
0.08677724035
0.07924543917
-0.0461546851
0.06228191553
0.1534257932
0.4418342909
0.02705556227
0.1814378203
-0.4765139963
-0.03130641091
0.1296607627
-0.2716637419
0.0001637304192
-0.523360894
0.009698401373
0.2186435747
0.6283358348
-0.0808225444
0.08542233098
-0.8159788941
-0.05005228719
-0.02790965629
0.7300851369
-0.05803750992
-0.06976129384
-0.4655318186
0.02513888727
-0.02156102313
0.8231849688
0.05437885432
0.01213463813
-0.5774128868
0.1217491066
0.08255933683
0.6400239715
0.06343835393
0.1068325526
-0.4048362001
0.06371832079
0.03930711928
0.6301022757
-0.02480376589
-0.1281928665
-0.3606457788
0.005388344865
-0.3031149916
0.5584393578
0.0603272519
-0.3144234123
-0.2527968462
0.1235590577
-0.182168416
0.596951475
0.1250534314
-0.02151355774
-0.24291841
0.08848319303
0.02228178665
0.4216285732
0.06115203575
-0.006962404875
-0.1082009739
0.01311337806
-0.04784703243
0.4788713032
0.001453037323
0.03090826063
-0.3099030318
-0.001328494107
0.2003197109
-0.01188539711
0.06552858534
-0.3695674911
0.04159746434
0.1347551265
0.5860043624
-0.07284560997
0.08176908651
-0.9181881223
-0.03395925022
-0.03142669433
0.524854156
-0.04580934339
-0.1153857319
-0.7275392703
-0.0309140773
-0.09059761579
0.7074821649
0.01684518449
-0.009800757145
-0.6147442278
0.1118385209
0.08915416465
0.6449331465
0.07183811152
0.1200235837
-0.531217562
0.0158455501
0.05214934618
0.4199855429
-0.06731791747
-0.1080839449
-0.642536463
-0.02084468768
-0.2465211807
0.3386709473
0.02301228121
-0.2782833057
-0.3244723842
0.09973876889
-0.1783935357
0.6952610604
0.1148529811
0.006253039728
-0.08989275145
0.09101372744
0.08944807237
0.4792668109
0.02935738948
0.009014984972
-0.1664951219
-0.02502735661
-0.1077825065
0.4832701196
-0.02128049654
-0.005735000295
-0.1078018388
0.03443661769
0.2778941308
0.3581211041
0.1221098701
-0.1914380889
0.05977703097
0.1672333668
0.6454269943
-0.03730303258
0.1737630543
-0.8866403138
0.02376302522
0.08654009534
0.4254276147
-0.02970864822
-0.02795000802
-0.9227169266
-0.03095066998
-0.05035760491
0.5638621215
-0.005472802785
0.008689351266
-0.695779335
0.09709530718
0.07199775833
0.5788515791
0.08429318847
0.0763188747
-0.6932469597
0.01854756449
0.00979004962
0.272815824
-0.01184755169
-0.1011094249
-0.8142027459
0.009595524382
-0.1807454522
0.1947003811
0.01505952154
-0.2136742632
-0.4388913211
0.05904315632
-0.2194905923
0.6142907146
0.0942581955
-0.08062410749
-0.04348845398
0.07713873562
0.03412465293
0.577417069
0.03039783307
-0.01819937394
-0.1660152631
-0.02898035986
-0.1490039161
0.4752834692
-0.01591122541
-0.06991887586
0.01974516176
0.05577671443
0.2149874316
0.6441311918
0.1413624881
-0.0894194082
0.05655793752
0.01451359563
0.7185103921
0.007830177882
0.06291585714
-0.8080819808
0.02789697934
0.04155307516
0.4542811079
-0.0288981966
-0.02156334964
-1.027578132
-0.0594976397
-0.04723309114
0.4077434172
-0.05338395208
-0.01916026445
-0.8412582426
0.009138131467
0.01182662227
0.4358406389
0.01141542844
0.01333655901
-0.8480515572
-0.01858551172
-0.003477764741
0.2296027654
0.004204293535
-0.02488274602
-0.8198050299
0.004889921466
-0.03180252567
0.1885102815
-0.03933394586
-0.06896173266
-0.5692701943
-0.01414233012
-0.1341996719
0.4005504778
0.01548100044
-0.08225738848
-0.1503320647
0.03496274881
0.03138253402
0.6552959607
0.01134005077
0.04419180592
-0.09092769033
-0.02054780099
-0.04001349542
0.4674589138
-0.01731812572
-0.01758021911
0.03095117472
0.03357519666
0.1529181965
0.7308430603
0.09602504022
-0.06567045445
0.03939342984
0.06214603094
0.02948108259
0.08272364289
0.01659299459
0.1030224241
-0.007356873811
0.05253798184
-0.002263174714
0.01359032532
-0.0231682537
0.01063019517
0.02083796448
-0.008874914493
0.01033035308
-0.02167669802
0.007371750656
-0.02238358716
0.03739862863
-0.02033167694
0.01735529157
-0.003509935479
-0.008301523217
-0.0234095757
-0.006391056427
-0.09332501595
-0.002734277983
-0.08601371297
0.01389394895
-0.02045926046
0.01937748006
-0.008088800973
-0.005208571511
-0.04227910414
-0.006602831351
-0.03517042625
0.01999787079
0.01911797233
0.03894286743
0.01367154685
-1.717003666
0.006640645072
0.05159778717
-1.714717489
-0.1231523766
0.6278468283
-1.139299209
0.3334430226
0.378400213
-0.526558883
0.2801754764
0.7430438502
-0.1732203175
0.1355376359
0.7522421362
0.1542578223
0.02603100107
0.9715731549
0.5086857107
0.1244571925
0.9496961923
0.8351274967
0.04339575744
1.105935397
0.9849385365
0.1453709388
1.081988792
1.112357542
0.1946234094
1.070100774
1.226773105
0.1285297759
0.8363582972
1.174926979
-0.1270616473
0.6544987295
0.8508277263
-0.2679788597
0.6123630895
0.5315813773
-0.138837234
0.6625797975
0.3366592384
0.1126904315
0.649068325
0.2250140224
0.09898044195
0.3458014118
-0.1023373401
-0.05405138589
0.1319664192
-0.4579877394
-0.2388003953
-0.0365173954
-0.8537368899
-0.245583914
0.03461477054
-0.1580163454
-0.01870449059
-1.708328379
0.03576081047
0.003882157454
-1.576925713
-0.1390437788
0.5647702236
-1.118978659
0.5691700033
0.5056468859
-0.6008903505
0.4872888574
0.8597526558
-0.1977217956
0.36354754
0.731221837
0.1626896769
0.1660560807
0.9947047027
0.5213004862
0.3725936754
0.9702290345
0.8673844021
0.1779369943
1.073330301
1.01797839
0.2599786998
0.9787697603
1.075815061
0.2330917283
0.9771276616
1.108648771
0.1519135202
0.8606941536
1.103162567
-0.1835406166
0.7321624688
0.9082826088
-0.37680765
0.6188771423
0.6330577454
-0.2719510171
0.5690368381
0.3461730145
0.04129040485
0.5427425997
0.1362203382
-0.002875210027
0.2983772849
-0.1906891975
-0.1628030395
0.1625977181
-0.483361767
-0.3845337715
0.01765388598
-0.7927335596
-0.319858949
0.08088000606
-0.2133874532
0.002063132272
-1.673651596
0.1073942972
-0.08992601383
-1.367232031
-0.01871143093
0.4366382937
-1.070002334
0.7022528453
0.5270334367
-0.7221995448
0.5722233778
0.9043639318
-0.2398596898
0.6457785034
0.6863254672
0.1650130859
0.3973770235
1.009431622
0.5089605938
0.754121799
0.9670230724
0.8555651919
0.4428907933
1.018168293
1.03555487
0.3642727995
0.8124177426
1.034741173
0.1247138707
0.8570093453
0.9829637047
0.1118484939
0.829456245
0.9942356778
-0.1349726683
0.8414684532
0.9617738889
-0.2856438755
0.6226128362
0.7621542211
-0.3494051563
0.4749972423
0.3796306717
-0.1509165254
0.3908076421
0.05010922741
-0.2620992673
0.2485413142
-0.2800188882
-0.2970074326
0.1998970783
-0.4896441751
-0.4193993282
0.08274308606
-0.6982964845
-0.2082149833
0.1187504795
-0.1590672887
0.01246286902
-1.579985665
0.2488907667
-0.172181761
-1.189570471
0.1915644848
0.3041162239
-0.986729801
0.7347381908
0.4578941053
-0.754910978
0.5445861627
0.8532285243
-0.2432664786
0.9509472374
0.6528563511
0.191718945
0.6362724616
0.9845394197
0.4708474158
1.128796238
0.9374742095
0.7526250931
0.750896819
0.9707965491
0.9619018535
0.5061917265
0.7252272149
0.9719621854
0.0140683887
0.7668806621
0.8923955109
0.06307976383
0.7698186026
0.90684246
-0.02829341525
0.8745023345
0.935718176
-0.09852221361
0.6412888186
0.7882641233
-0.3486598543
0.4125426608
0.3750246021
-0.321718915
0.3037586579
0.005839315295
-0.5133506384
0.2286818437
-0.3016223735
-0.3706789849
0.2527623967
-0.4572280298
-0.3879878835
0.1150472945
-0.6193429864
-0.05444667695
0.1012477566
-0.07743086367
-0.0155468808
-1.471149858
0.4348319682
-0.161203403
-1.105648702
0.3508362426
0.3280326788
-0.9091729385
0.751854447
0.3288105277
-0.7250377449
0.4831986028
0.7726844798
-0.2268432609
1.235341704
0.6220117626
0.2232636911
0.8377792887
0.9225344929
0.4031171745
1.369493309
0.811017165
0.5719884729
0.9424064297
0.9136044371
0.7927602633
0.7549081785
0.6764527295
0.9221978493
0.04989108847
0.7266739237
0.8972112944
0.0919930126
0.5460222626
0.8552762508
0.02581800913
0.7930382345
0.8529453195
0.08078467766
0.5700114036
0.7400398331
-0.321008186
0.3912140751
0.3584350506
-0.3612665692
0.2561564406
0.02914757447
-0.6135204702
0.2457107769
-0.2293994632
-0.3345119581
0.2799204305
-0.3618821137
-0.3550962878
0.1008156293
-0.5538076217
0.00568140154
0.02334577095
-0.0840988988
-0.07838365232
-1.292766763
0.5566825697
-0.04622567716
-1.095003427
0.3146228915
0.4702751122
-0.8031125621
0.8002975382
0.2524342847
-0.5872524383
0.4804963861
0.7139438345
-0.1574351387
1.451773942
0.6108145423
0.2686786498
0.9958843225
0.8297914715
0.355496192
1.419812426
0.6559254646
0.3723080469
0.9208230119
0.8358359783
0.5713394508
1.064471279
0.7102755776
0.8336304799
0.2950096272
0.6992215765
0.9273776301
0.2118538644
0.296805425
0.821700058
-0.02251517981
0.573432446
0.7241178757
0.1456671108
0.4615530429
0.6221138427
-0.325357448
0.3676053445
0.3118528994
-0.3029013363
0.2667982778
0.06083365082
-0.5696472934
0.2680817005
-0.1483456092
-0.2252302192
0.2758122256
-0.2832913272
-0.3670013241
0.05651610142
-0.5273020775
-0.07743874737
-0.0567501956
-0.1930122812
-0.1266719639
-1.165467895
0.5749292232
0.02535311147
-1.105836084
0.140342868
0.5679806785
-0.7211899233
0.9839223542
0.1855317929
-0.4203617935
0.5798187056
0.6437169053
-0.09926073095
1.597374154
0.5218683171
0.2417019604
1.10710762
0.7388746265
0.2973395136
1.404797025
0.4808757419
0.2566503484
0.7449031438
0.7329940724
0.3879929857
1.317839735
0.6597825398
0.675438472
0.5890767579
0.7004366784
0.9019440923
0.5022556921
0.01212011857
0.8172009953
-0.09775304436
0.4053069664
0.6402585027
0.1363317105
0.2940819569
0.5313379294
-0.4061326613
0.3604630384
0.2960407516
-0.2348588205
0.2679849006
0.1119785576
-0.519730535
0.2555139685
-0.08514457525
-0.1292932983
0.2160539522
-0.2291075575
-0.4219311512
0.02412811133
-0.4637855008
-0.2032057226
-0.07359283503
-0.3218717221
-0.1203458127
-0.9878467592
0.5541152978
0.007093239347
-0.9708348009
0.0284300513
0.5181877574
-0.5681808528
1.287847467
0.1655030979
-0.251826241
0.7408844443
0.5462842549
-0.03336110743
1.651818761
0.4139995734
0.1674308917
1.130555358
0.6832873799
0.2432452786
1.434329356
0.4192384226
0.2344136567
0.6128711522
0.6168660535
0.2527185047
1.428145241
0.5592484874
0.4468743141
0.758469308
0.6412374547
0.7536054608
0.897540525
-0.1817119835
0.7395537023
-0.07526688871
0.2960825466
0.5567222844
0.1761895743
0.2107046474
0.4595702493
-0.4834299812
0.3324888058
0.2802539346
-0.2049178357
0.2556032768
0.1212781613
-0.5520598373
0.1817287112
-0.1037330266
-0.1328904736
0.1359988593
-0.2484915031
-0.4863016557
0.02432458375
-0.403681829
-0.2494587362
0.005675130717
-0.3688819736
-0.04964470726
-0.8600528825
0.5661761914
-0.1072732118
-0.7910216334
0.01765667551
0.3627241652
-0.4836655229
1.514177449
0.1442598187
-0.1840441997
0.7924166679
0.4384804922
-0.03112410512
1.608667372
0.2712862533
0.05362371543
0.9979690349
0.6483455347
0.1616137244
1.573684631
0.4014958204
0.2723257664
0.6281350033
0.529149693
0.234977445
1.404682467
0.3839109633
0.2855769396
0.6822090651
0.5835134413
0.5358931191
1.148930011
7.821410457e-05
0.5959787373
0.008931375147
0.3636357084
0.4925698985
0.3165600147
0.1957566869
0.4204426903
-0.4951321687
0.3327721383
0.2957285118
-0.1869365848
0.2072262644
0.1583272412
-0.6912564452
0.09444204663
-0.1056378754
-0.2360549829
0.05505761204
-0.2413411139
-0.5366428011
0.05241261466
-0.3026047091
-0.1383790326
0.1311406111
-0.2999227304
0.03482996903
-0.62294425
0.6493271537
-0.1838170064
-0.4887290924
0.0589420586
0.2501473504
-0.3406390889
1.504328726
0.1493716835
-0.1388176427
0.6579295446
0.3705190774
0.001486183392
1.499889975
0.2083284647
0.01365210201
0.7397090309
0.6016639181
0.107875724
1.691313915
0.4354692689
0.2653862851
0.7471921031
0.4716268266
0.2182549326
1.345359116
0.2334737818
0.1604645404
0.4930445375
0.4064844449
0.3105923791
1.197655357
0.1383630991
0.4024623408
0.09679077166
0.362793305
0.3579582999
0.4719883637
0.2264369935
0.3170472272
-0.4320336135
0.3003397674
0.243619176
-0.1432468973
0.1889899248
0.146742448
-0.8123449349
0.04334546465
-0.09490737482
-0.3723114057
0.02670499313
-0.2204295058
-0.5784479455
0.09227918281
-0.2345000614
0.04323551616
0.2159534407
-0.1855466452
0.07823652239
-0.4721393312
0.7837134507
-0.1710998771
-0.3477388126
0.0385950209
0.230681578
-0.3069299248
1.299570167
0.09589891295
-0.1697322389
0.420577861
0.3289561063
0.01580409094
1.412580876
0.1604690441
0.02674963911
0.4628645149
0.4776826485
0.06060642816
1.663541684
0.3561782261
0.175551674
0.7554400161
0.4431706823
0.1805416326
1.311440394
0.1302912197
0.1163528329
0.276302881
0.2907312692
0.192725284
1.125200874
0.1181537517
0.2526849877
0.07351742595
0.3411942549
0.2320274469
0.5444879311
0.2030776402
0.2123614831
-0.3826239988
0.2866652128
0.1873191023
-0.03344164299
0.1903131669
0.1698516995
-0.8288090122
0.06765860036
0.01072254427
-0.4111142352
0.04406978165
-0.08462672758
-0.6307782903
0.0912600366
-0.1440041432
0.1649952535
0.1844985692
-0.128454206
0.05451376823
-0.2457732784
0.8820851299
-0.07934425772
-0.2048365099
-0.06433883725
0.2596796499
-0.1887287659
1.121927929
0.03119937899
-0.1148179291
0.216596858
0.3285904215
0.08329098163
1.403915987
0.1669140534
0.1358102597
0.286326597
0.3158688475
0.07554960125
1.429868361
0.2516038862
0.06400992575
0.5434554028
0.4101153905
0.08125492458
1.224693572
0.2057427344
0.06479415845
0.1205446652
0.2425303146
0.08201054244
1.017806061
0.1248502034
0.09548969809
-0.01006096035
0.2478020947
0.0604171062
0.4835390633
0.2193740848
0.04794970285
-0.3982919823
0.2597360833
0.05277150289
0.1147806828
0.2482579634
0.1188872654
-0.6784542555
0.1427158124
0.1042147425
-0.2963713677
0.1021136376
0.03718604192
-0.6596523371
0.0515039648
-0.1142774185
0.1193880228
0.0586408826
-0.1946637008
-0.01231703111
-0.1756657411
0.8817593146
-0.02979586348
-0.2136794252
-0.2495396492
0.201791567
-0.1595037277
1.103391324
-0.08557092982
-0.1038594654
0.08460525686
0.2782416909
0.06735873764
1.407312398
0.1188191116
0.1635588584
0.1670804668
0.1539705023
0.06827511202
1.13923394
0.06874129165
-0.03348608325
0.1483083146
0.3322300296
-0.0008580405485
1.092775808
0.2433391786
0.0389782117
0.0494892529
0.2546008278
0.03824090077
0.985714594
0.04710455117
0.008382866746
-0.08492383331
0.1789243502
-0.002832508777
0.4328499006
0.1684624627
-0.006801784311
-0.4422974724
0.2273290856
-0.009049993829
0.2280467979
0.2530243622
0.1029906409
-0.468271062
0.1973789379
0.2019505407
-0.06681688016
0.1310672976
0.1964394349
-0.6485114657
-0.009484481379
-0.02182016234
-0.0313217636
-0.07357234302
-0.3420178261
-0.07238921041
0.01034464876
0.7884496159
-0.05345690357
-0.07806047174
-0.458775032
0.09729881652
-0.0281890402
1.142099381
-0.111550591
-0.002745565881
-0.0786972653
0.2395857762
0.07673260801
1.291899303
0.1215568175
0.1420530298
0.00129058908
0.1249647525
0.07245821914
0.9068952229
0.03913469845
-0.05074899641
-0.2248842725
0.2680015016
-0.04380039856
0.8927819191
0.278432038
-0.008849953023
-0.0001912826254
0.2391931227
-0.07510759366
0.9429510985
0.07509283967
-0.1320951859
-0.112784776
0.161136141
-0.09809628214
0.459793142
0.1911805085
-0.06282402102
-0.4473260107
0.1944397298
-0.08911635609
0.2617812284
0.2196231243
0.007356434775
-0.3111877468
0.1786851405
0.1376565509
0.1645770895
0.1348027569
0.2024392943
-0.5585655947
-0.02704466345
0.03327543476
-0.1384539996
-0.1051419352
-0.4543505544
-0.06763974186
0.02462030546
0.6884055702
-0.1381917658
-0.04190036338
-0.6353903005
-0.02606271657
-0.02773580702
1.047096158
-0.1096678845
-0.02308751955
-0.3230713998
0.1331154316
0.002875206804
1.058057333
0.07064589325
0.02030033654
-0.2183482172
0.1303395793
0.02513549394
0.8038973094
0.03364145278
-0.006445748712
-0.4466952205
0.1739076132
0.01203851268
0.731284914
0.1224777698
-0.001297909496
-0.131633706
0.1340692792
-0.1253976876
0.7951548046
0.04392160083
-0.213443908
-0.1659505753
0.165451688
-0.1297825782
0.5774642253
0.1866004047
-0.02165281959
-0.3510325526
0.1691911685
-0.03472941684
0.2745134978
0.1258360038
-0.00606357138
-0.2572914796
0.08641067096
0.0863379348
0.343949398
0.08770662336
0.2042010445
-0.3741841842
-0.003320692311
0.170312051
-0.03695018137
-0.02177647168
-0.4374807872
-0.01681116958
0.1604441221
0.6493655236
-0.1698252506
0.1272023807
-0.7330476634
-0.03609180297
0.06876445729
0.801284318
-0.05620391017
0.04193189606
-0.597943902
0.08892924698
0.02227122463
0.7792842738
0.08066791152
-0.02079754997
-0.493668969
0.2059118229
-0.0001437416553
0.7190818202
0.1621287984
0.03642677729
-0.5380281368
0.1689843139
0.06086131483
0.6081962406
0.02941507447
-0.01767323153
-0.358680808
0.04847160513
-0.1980778537
0.5040324446
0.08807466905
-0.3067921849
-0.3195492784
0.192784193
-0.2392773617
0.6478701283
0.2431729402
-0.08582574865
-0.237265241
0.1818008921
-0.04686814629
0.317321693
0.1010708898
-0.05436100101
-0.260964474
0.01070475909
-0.02581312681
0.4416797052
0.04151223195
0.09883963568
-0.1657190154
0.04864093267
0.1863762684
0.2169966286
0.1082939939
-0.327080152
0.05203706051
0.08517978582
0.7065858648
-0.1195540725
0.09006551422
-0.7777778488
-0.001286140648
0.01552937847
0.5774422105
-0.06168338511
-0.009568035936
-0.8104594622
-0.0144847251
-0.01205469943
0.5782085236
0.004810060377
-0.05539331895
-0.7335107088
0.1544202566
-0.03561206141
0.6111293049
0.1629883954
0.04706739161
-0.6117013357
0.0990905814
0.09133683193
0.5225558584
-0.07390873052
-0.0006433888458
-0.5770681145
-0.03331795109
-0.1363109914
0.2414129888
0.01582825649
-0.2335520435
-0.5171000576
0.1389803647
-0.2337117659
0.5879190406
0.1859420624
-0.09842844755
-0.1499070679
0.1733365488
0.00967358483
0.4410927968
0.0808026239
0.02428157455
-0.2168964386
-0.03982866661
0.005001641992
0.4987332675
-0.0229097642
0.09238081911
-0.02226257919
0.06533000365
0.2045261739
0.4428648442
0.1868949485
-0.2177127165
0.08764126197
0.1515703272