/*--------------------------------*- C++ -*----------------------------------*\
| =========                 |                                                 |
| \\      /  F ield         | OpenFOAM: The Open Source CFD Toolbox           |
|  \\    /   O peration     | Version:  5.x                                   |
|   \\  /    A nd           | Web:      www.OpenFOAM.org                      |
|    \\/     M anipulation  |                                                 |
\*---------------------------------------------------------------------------*/
FoamFile
{
    version     2.0;
    format      ascii;
    class       volScalarField;
    location    "7.6";
    object      rho;
}
// * * * * * * * * * * * * * * * * * * * * * * * * * * * * * * * * * * * * * //

dimensions      [1 -3 0 0 0 0 0];

internalField   nonuniform List<scalar> 
30538
(
1.267560188
1.289142724
1.289456552
1.289379992
1.289224625
1.289211257
1.289292557
1.289367486
1.289424301
1.28953599
1.289669127
1.289723573
1.28971681
1.289770941
1.289877187
1.289915899
1.289836504
1.289734673
1.289765904
1.295858195
1.26756706
1.289210987
1.289448102
1.289372996
1.289285876
1.289282139
1.289353996
1.289429695
1.289481373
1.289560515
1.289661013
1.289738402
1.289768854
1.289803913
1.289853972
1.289870406
1.289833715
1.289783916
1.289834554
1.295876248
1.267796744
1.289274551
1.289421275
1.289344935
1.289337334
1.289343648
1.289397695
1.289477817
1.289530804
1.289569381
1.289625452
1.289719752
1.28979178
1.289808975
1.289796362
1.289791124
1.289807546
1.289815767
1.289883858
1.29596138
1.267786622
1.289324329
1.289419259
1.289347216
1.289398939
1.289407043
1.289430425
1.289510055
1.289581504
1.289598977
1.289607209
1.28970033
1.289794285
1.289797015
1.289748869
1.289738515
1.289792972
1.28983496
1.289903657
1.295930693
1.268352812
1.289334226
1.289448253
1.289389071
1.289455878
1.289467743
1.289455314
1.289523996
1.289617512
1.289640068
1.28961871
1.289678178
1.28976194
1.289762006
1.289715923
1.289717601
1.289785454
1.289831865
1.289886102
1.296106726
1.268443048
1.28929808
1.289501128
1.289462856
1.28950131
1.289520234
1.289487011
1.289534836
1.289628972
1.289672529
1.289651078
1.289663159
1.28970251
1.289711887
1.289691502
1.289706238
1.289764879
1.289807369
1.28985142
1.296007803
1.269442709
1.289299867
1.289566426
1.289546813
1.289539307
1.289562282
1.28954263
1.289563578
1.289623101
1.289675103
1.289676256
1.289662336
1.289655722
1.28966613
1.289662931
1.289679144
1.289727643
1.289777629
1.289843885
1.296223229
1.269660896
1.28934127
1.289620456
1.289611057
1.289572384
1.289589157
1.289612054
1.289618433
1.289620074
1.289657656
1.28968031
1.289661113
1.289630214
1.289634703
1.289637136
1.289642987
1.289677241
1.289748556
1.289860675
1.296056241
1.271174974
1.289432252
1.289645987
1.289641662
1.289602948
1.289605703
1.289668666
1.289682136
1.289640593
1.289647929
1.289672772
1.289659479
1.289620065
1.28961753
1.289621344
1.289611276
1.289633179
1.289721039
1.289878709
1.29620418
1.271505638
1.289493887
1.28964461
1.289645453
1.289635413
1.289621241
1.289689439
1.289716817
1.289681642
1.289664947
1.289669207
1.289648167
1.289598854
1.289598649
1.28961805
1.28961303
1.289619967
1.289693079
1.28984964
1.295790597
1.273493385
1.289536589
1.289640459
1.289648263
1.289673429
1.28964975
1.289680785
1.289710006
1.289717209
1.289700333
1.289680861
1.289641092
1.289578114
1.28957918
1.289619737
1.289640652
1.28964303
1.289669232
1.289775074
1.295711743
1.273836444
1.289535936
1.289653222
1.289665038
1.289714395
1.28969457
1.289666221
1.289674093
1.289723488
1.289728591
1.289700233
1.289647684
1.289575602
1.289566694
1.289619274
1.289678482
1.289688416
1.289660635
1.289689941
1.295048201
1.276355331
1.289557246
1.289681668
1.289687882
1.289734955
1.289728341
1.289666584
1.289643692
1.289711938
1.28973945
1.289712565
1.289664825
1.289603618
1.289576464
1.289614929
1.289698946
1.289727678
1.289675813
1.289643609
1.294839603
1.27670901
1.289576463
1.289701262
1.289697436
1.289721374
1.289724616
1.289679622
1.289648663
1.289707427
1.289734117
1.28970648
1.289678361
1.28964213
1.289607249
1.289619165
1.289701062
1.289747286
1.28970981
1.289660003
1.294023159
1.27975268
1.289632156
1.289700344
1.289689607
1.289684442
1.289687519
1.289691071
1.289684233
1.28972277
1.289723079
1.289688239
1.2896725
1.289667714
1.289647584
1.289642296
1.289690539
1.289745669
1.289745897
1.289723693
1.293723541
1.280043908
1.289669403
1.289696476
1.289689806
1.289657106
1.289651886
1.289692975
1.28972239
1.289746201
1.289715753
1.289671989
1.2896564
1.289668436
1.28968054
1.289679419
1.2896935
1.289730921
1.289757562
1.289777491
1.292792735
1.283528865
1.289711552
1.289704117
1.289702547
1.28966024
1.289648052
1.289693358
1.289742527
1.289754702
1.289713835
1.289678022
1.289652415
1.289663512
1.289704955
1.289722132
1.289710627
1.289712828
1.289737739
1.289787908
1.292341033
1.283632365
1.289720695
1.289725112
1.289722154
1.289694951
1.289674286
1.289702277
1.289744216
1.289743946
1.289710959
1.289702778
1.289679137
1.289675406
1.289727113
1.289751113
1.289726988
1.289700267
1.289711852
1.289772111
1.291321982
1.287508545
1.289415796
1.289738537
1.28926616
1.289715903
1.289183315
1.289680472
1.289310916
1.289698605
1.289454588
1.289733891
1.289602281
1.289724883
1.289688577
1.289798593
1.289724776
1.289744914
1.289689521
1.289763356
1.290818271
1.31294737
1.255851621
1.306027397
1.250935478
1.298424992
1.250424882
1.293702454
1.254307064
1.292662607
1.261488429
1.295042593
1.270201103
1.298919884
1.278062699
1.301886508
1.282944277
1.3023949
1.28381523
1.300279865
1.281618271
1.263402417
1.289085
1.289438035
1.289380004
1.289283717
1.289289245
1.289345415
1.289421631
1.2894878
1.289576669
1.289702384
1.289814001
1.28984474
1.289839146
1.289869512
1.289922467
1.289908635
1.289829378
1.289853111
1.297458957
1.263400171
1.28914534
1.289426818
1.2893709
1.289334901
1.289338035
1.28938385
1.289466205
1.289544829
1.289624664
1.289711743
1.28980836
1.289865865
1.289882633
1.289895555
1.289919072
1.289905089
1.289848964
1.289889457
1.297505107
1.263644078
1.289208537
1.28942521
1.289364881
1.289375894
1.289374483
1.289404185
1.289491961
1.289591038
1.289657655
1.289692376
1.289763331
1.289845366
1.289889753
1.289891484
1.289880477
1.289868012
1.289842443
1.289907285
1.297645576
1.263638654
1.289274078
1.289458611
1.289395897
1.289425553
1.289421542
1.289433251
1.289514678
1.289627855
1.289688985
1.289685972
1.28972628
1.289808194
1.289869948
1.289870923
1.289841245
1.289832311
1.289837287
1.28992354
1.297724852
1.264229796
1.289295587
1.289510892
1.289450257
1.289466055
1.289475898
1.289480841
1.289540417
1.289641346
1.289711436
1.289708225
1.289715206
1.289765121
1.289826046
1.289833811
1.289802728
1.289803078
1.289833406
1.289934847
1.297989598
1.264312847
1.289263333
1.289558542
1.289508832
1.28949898
1.289528906
1.289545673
1.289573899
1.289633658
1.289714642
1.2897463
1.289731962
1.289730051
1.289773603
1.289783923
1.289764466
1.289778924
1.289827179
1.289932584
1.298036134
1.265388334
1.289263376
1.289599428
1.289565779
1.28953973
1.289574155
1.289613632
1.289621648
1.289626773
1.289699766
1.289764297
1.289753999
1.289714617
1.289727108
1.28973353
1.289732053
1.289759977
1.289813091
1.289917459
1.298271042
1.26568001
1.289301592
1.289627812
1.289617994
1.289591066
1.289605266
1.289657982
1.289668601
1.28964378
1.289683528
1.289746692
1.289746547
1.289702224
1.28969255
1.289695505
1.289711369
1.289744362
1.289787254
1.289880521
1.29814075
1.267374954
1.289396297
1.289645297
1.289658625
1.289642891
1.289619848
1.289673444
1.289706234
1.28969118
1.289690549
1.289713662
1.289718885
1.28968464
1.289666644
1.289675699
1.289706961
1.289736193
1.289753842
1.289828914
1.298199343
1.267851142
1.289456732
1.289653776
1.289678581
1.289677869
1.289632253
1.289668133
1.289717838
1.289745235
1.289723639
1.289699215
1.289691213
1.289664045
1.289646063
1.289666912
1.289710114
1.289731763
1.289720802
1.289777785
1.29777083
1.270116705
1.289498213
1.28966561
1.289682692
1.28969196
1.289662446
1.289670431
1.289709503
1.289766508
1.289754957
1.289711828
1.289687445
1.289653308
1.289632743
1.289655705
1.289705501
1.289727665
1.289704481
1.289750234
1.297578945
1.270647671
1.289497322
1.289683215
1.289678325
1.289697165
1.289711486
1.289694744
1.289690533
1.28974492
1.289756859
1.289734924
1.289702952
1.289660108
1.289630718
1.289639282
1.28968955
1.289720528
1.289712911
1.289759973
1.296845739
1.27356472
1.289539499
1.289704341
1.289677493
1.289699616
1.289751854
1.289733235
1.289682949
1.289705207
1.289736101
1.289746246
1.289721539
1.289680293
1.289646802
1.289635578
1.289673301
1.289713359
1.289736222
1.289790318
1.296458306
1.274167447
1.289583847
1.28971177
1.289676964
1.289694008
1.289755247
1.289750444
1.289693232
1.289691298
1.289718827
1.28973785
1.289719046
1.289693345
1.289671722
1.289656626
1.289674677
1.289710095
1.289750919
1.289809906
1.29549329
1.277710876
1.289656353
1.289707307
1.289682898
1.289680437
1.289719727
1.289734577
1.28971133
1.289717976
1.289727391
1.289722887
1.289699602
1.289686292
1.289689728
1.289691606
1.289698717
1.289714865
1.289746548
1.289795761
1.294927094
1.278238741
1.289682828
1.289703382
1.289700549
1.289676454
1.289683429
1.289700002
1.289722679
1.289757632
1.289747364
1.28971529
1.289680087
1.289668789
1.289691696
1.289719661
1.289731764
1.289728426
1.28973322
1.289760695
1.293781619
1.282272176
1.289700805
1.289711489
1.289726822
1.289693418
1.289671759
1.289676128
1.289729518
1.289772706
1.28975784
1.289723466
1.289683079
1.289665639
1.289688309
1.28973195
1.289760542
1.289749212
1.289723069
1.289722099
1.2930714
1.282544272
1.289690123
1.289727327
1.289748408
1.289730383
1.28968434
1.289681282
1.289731972
1.289761811
1.289750635
1.289736054
1.289706855
1.289691822
1.289699764
1.289733388
1.289773922
1.289767715
1.289727464
1.28970663
1.291856468
1.287048037
1.289349958
1.289725706
1.289219605
1.2897227
1.289111077
1.289647419
1.289248513
1.289699406
1.289450506
1.289742801
1.289615019
1.289747867
1.28967655
1.289784364
1.289763716
1.289823259
1.289735756
1.289731567
1.291132727
1.313338885
1.253636154
1.304977311
1.247563685
1.29588222
1.246627445
1.290508854
1.250932464
1.290157743
1.259124181
1.294034503
1.268981655
1.299467083
1.277778465
1.303659143
1.283008127
1.304641341
1.283591422
1.302221656
1.280747598
1.258901242
1.289077908
1.289396255
1.289341582
1.289370407
1.289412383
1.289421294
1.289486927
1.289571206
1.289645502
1.289754132
1.289906749
1.289987664
1.289939218
1.289878079
1.289918639
1.289965714
1.289937619
1.289991281
1.302012388
1.258888605
1.289094387
1.289403145
1.289356275
1.289395916
1.289427501
1.289437434
1.289505288
1.289620676
1.289725228
1.2897994
1.289888478
1.289969311
1.28998999
1.289967765
1.289975795
1.289971183
1.289925225
1.289985435
1.302072363
1.259133794
1.289113827
1.289438653
1.289402976
1.289413896
1.28942129
1.289432473
1.289505328
1.289657698
1.289784759
1.289811788
1.289829177
1.289899436
1.289985071
1.290014182
1.289993762
1.289939997
1.289878534
1.289953302
1.30238807
1.259075197
1.289155189
1.289515142
1.289489825
1.289441492
1.289432397
1.289458802
1.289527742
1.289675049
1.289803268
1.289818028
1.289788063
1.289827444
1.289938497
1.290006659
1.289975088
1.289896621
1.289844712
1.289941849
1.302512996
1.259711054
1.289190396
1.289595342
1.289557852
1.289466374
1.289461761
1.28953138
1.289587514
1.289661511
1.289768167
1.289833113
1.289806491
1.289793816
1.289876626
1.289949205
1.289921973
1.289854852
1.28983495
1.289964193
1.303071551
1.259774521
1.289207632
1.289627677
1.289583451
1.289492167
1.289506823
1.28963253
1.289674351
1.289637612
1.289708806
1.289847385
1.289866288
1.289808984
1.289830003
1.289868124
1.289854159
1.289825056
1.289845358
1.289989712
1.303121198
1.260995853
1.289258633
1.28962062
1.289582053
1.289546397
1.289564481
1.28970471
1.289744264
1.289648306
1.289675641
1.28983939
1.289893049
1.289832186
1.289799913
1.289799239
1.289805362
1.289815302
1.289849242
1.289977157
1.303584186
1.261287401
1.289305727
1.289601627
1.289599205
1.289627014
1.289625168
1.289707084
1.289751992
1.28969997
1.28969792
1.289804938
1.289858589
1.289819954
1.289772247
1.28975596
1.289786954
1.289820951
1.289832129
1.289913504
1.303317025
1.263255597
1.289386663
1.289616168
1.289646225
1.289702738
1.289673247
1.289663715
1.289708618
1.289770115
1.289762653
1.289765111
1.28978484
1.289779745
1.28974482
1.289739766
1.289793316
1.289828733
1.289798232
1.289821306
1.303389335
1.263747806
1.289414641
1.289661613
1.28970224
1.289723793
1.28970079
1.289635175
1.289673126
1.289819868
1.28982485
1.289752802
1.289737816
1.289745986
1.289724441
1.289734315
1.289791256
1.289820891
1.289764865
1.289753749
1.302665923
1.266442391
1.289448548
1.289717484
1.289721052
1.289691885
1.289708802
1.289669458
1.289680731
1.289811762
1.289838481
1.289767577
1.28974097
1.289741954
1.289716443
1.289715625
1.2897587
1.289789575
1.289754714
1.289760565
1.302313156
1.266960893
1.289446984
1.289735875
1.289702197
1.28964855
1.289714377
1.289746221
1.289729394
1.289756951
1.289784222
1.289784469
1.289770097
1.289756537
1.28972001
1.289679672
1.289698385
1.289739146
1.289766562
1.289840165
1.301206319
1.270566826
1.28951947
1.289721954
1.2896757
1.289638487
1.289729161
1.289813373
1.28977915
1.289695039
1.289706751
1.289780384
1.289786423
1.289764985
1.289726795
1.289668821
1.289655007
1.289696105
1.289781997
1.289917793
1.300484621
1.271157189
1.289582179
1.289697121
1.289669536
1.289664677
1.289744255
1.289818072
1.289788111
1.289681743
1.289676993
1.289764237
1.289769593
1.289744625
1.289727494
1.289698001
1.28966328
1.289676792
1.289768515
1.28992343
1.29899321
1.275569819
1.289671957
1.289695507
1.289684678
1.289696371
1.289745913
1.289765135
1.289756137
1.289713392
1.289709222
1.289762752
1.289740565
1.289701419
1.28971487
1.289742042
1.289717407
1.289687922
1.289726251
1.289839235
1.297916027
1.276005725
1.289677539
1.289713188
1.289711526
1.289717463
1.289745013
1.289701869
1.289714572
1.289752112
1.289773114
1.28977901
1.289724049
1.289669169
1.289692765
1.289755243
1.289771237
1.28972313
1.289692462
1.289733331
1.296209631
1.281005823
1.28967628
1.289731462
1.289737819
1.289733514
1.289737851
1.289677746
1.289693837
1.289759846
1.289805817
1.289791526
1.28972802
1.289681513
1.289675937
1.289730993
1.289794249
1.289772299
1.28970368
1.289670059
1.294952392
1.281085031
1.28965178
1.289733123
1.289754811
1.289757447
1.289723941
1.289681809
1.289697849
1.28975677
1.289797508
1.289771221
1.289734523
1.289721441
1.28968584
1.2897031
1.289793819
1.289815741
1.289748839
1.289673185
1.293207448
1.286691476
1.28920943
1.289702366
1.289063229
1.289734497
1.288980341
1.28964706
1.289154197
1.289718451
1.289469045
1.289733149
1.289645029
1.289787717
1.289708272
1.289760506
1.289818636
1.289879847
1.289816697
1.28973705
1.291955231
1.316757009
1.248081969
1.30673984
1.241000776
1.295835165
1.240544025
1.289369136
1.246948763
1.289053734
1.258006783
1.293678798
1.270806981
1.300086251
1.281976807
1.304818494
1.288398537
1.305288274
1.288505419
1.301286912
1.284252636
1.245842626
1.288938678
1.289356104
1.289288922
1.289453328
1.289514024
1.289531067
1.289587636
1.289645422
1.289725093
1.289851836
1.289970943
1.29003577
1.290051317
1.290016816
1.28996295
1.289946646
1.289950084
1.290115063
1.309602496
1.245693281
1.288887244
1.289446085
1.289377493
1.289441923
1.28951726
1.289541939
1.289588776
1.289690415
1.2898315
1.289925087
1.289956757
1.29000584
1.29007809
1.29006895
1.290019906
1.289980058
1.289965112
1.290114658
1.309851906
1.245823073
1.288797346
1.289530958
1.289484832
1.289434652
1.289495076
1.289523961
1.289564602
1.289723396
1.289901932
1.289953601
1.289920201
1.289951719
1.290044651
1.290073049
1.290048161
1.289987647
1.289937296
1.290057597
1.310408635
1.245515072
1.28873928
1.289608502
1.289605962
1.289461585
1.289483183
1.289533148
1.289590401
1.289741129
1.289894933
1.289945655
1.289922233
1.28992969
1.289987235
1.290030534
1.290044692
1.289981043
1.289903619
1.290002074
1.310986365
1.246096531
1.288796921
1.289666478
1.289672843
1.28950561
1.289483777
1.289597123
1.289692831
1.289736758
1.289802959
1.289917016
1.289967055
1.289942234
1.289917118
1.289957021
1.29001034
1.289957538
1.289873116
1.289963729
1.311878265
1.246050534
1.28894278
1.289667605
1.28967325
1.289560066
1.289502957
1.2896984
1.28984689
1.289741617
1.289692736
1.289885888
1.290011873
1.289967689
1.289880549
1.289893691
1.289954588
1.289920334
1.289849635
1.289950461
1.312463949
1.247510432
1.289111794
1.289607976
1.289613791
1.289631624
1.289564727
1.289749209
1.289927082
1.289799689
1.289681614
1.289878226
1.289991898
1.289973143
1.289877731
1.289856269
1.289903281
1.289885812
1.289838314
1.289940641
1.31310467
1.247855935
1.289171809
1.289550757
1.289574628
1.289708111
1.289673958
1.289727943
1.289858773
1.289863264
1.289778252
1.290108669
1.289924278
1.28994023
1.289869948
1.289830387
1.28986622
1.289865795
1.289835347
1.289915517
1.313131
1.250317305
1.289201074
1.289591478
1.289606894
1.289768137
1.289790188
1.289672884
1.289715083
1.289886377
1.289891969
1.289840966
1.289840079
1.289880477
1.28984674
1.289804479
1.289841394
1.289861662
1.289836175
1.289875462
1.312995795
1.251179148
1.28919151
1.28971625
1.289696312
1.289763906
1.289844855
1.289672817
1.289634613
1.289868292
1.289940626
1.289850647
1.289808261
1.289846278
1.289826903
1.289782389
1.289805636
1.289843532
1.289836092
1.28985243
1.312129763
1.254841717
1.289263513
1.289833545
1.289748573
1.289697106
1.289804663
1.289746701
1.289696274
1.289820799
1.289899248
1.289853779
1.289817232
1.289848802
1.28982543
1.289763417
1.289756677
1.289799392
1.289834972
1.289873596
1.311123553
1.256005956
1.289312397
1.289820376
1.28974601
1.289630574
1.289714974
1.289831099
1.289834162
1.289791893
1.28980778
1.289823237
1.289828248
1.289858587
1.289830895
1.289747938
1.28970106
1.289729854
1.289818478
1.289927539
1.309424668
1.26111145
1.289436075
1.289706805
1.289725137
1.289635835
1.28965692
1.289859319
1.28993373
1.289786191
1.289719772
1.289774571
1.289813266
1.289833491
1.289815825
1.289751647
1.289679977
1.289678735
1.289781876
1.289955766
1.307757451
1.262496569
1.289492236
1.289637038
1.289721642
1.289706089
1.289675087
1.289800707
1.289910072
1.289789194
1.289694394
1.289755561
1.289791963
1.289766155
1.289768039
1.289769449
1.289709147
1.289670162
1.289730435
1.289916054
1.305409308
1.268628478
1.289576464
1.289683339
1.289738081
1.289775385
1.289745588
1.289711382
1.289801069
1.289770982
1.289727252
1.289802382
1.289788456
1.289698866
1.289707655
1.289783221
1.289775986
1.289705236
1.289685103
1.289809675
1.303239631
1.269764311
1.289579264
1.289767713
1.289750414
1.289790675
1.289817413
1.289699649
1.289706508
1.289724003
1.289784137
1.289864997
1.289805479
1.289692163
1.289676998
1.289761627
1.289810919
1.289757318
1.289682027
1.289727397
1.300635395
1.27676
1.289627484
1.289803779
1.289740821
1.289762345
1.289835098
1.289759727
1.289675744
1.289676926
1.289803154
1.289868334
1.289813267
1.28974377
1.289690484
1.289714006
1.289790697
1.289793597
1.289734977
1.289718117
1.298259497
1.277349684
1.289647715
1.289770278
1.289716384
1.289724969
1.28979552
1.289798369
1.289688766
1.289700566
1.28980233
1.289785673
1.289774186
1.289804259
1.289729907
1.289679665
1.289749717
1.289806768
1.289797221
1.28975712
1.295674141
1.285207782
1.289059257
1.28966779
1.288688395
1.289615697
1.288656914
1.289636968
1.288898438
1.289671201
1.289353224
1.289677772
1.289585213
1.289846702
1.289781458
1.289764069
1.28979469
1.289857322
1.289851885
1.289805747
1.293315791
1.318124419
1.24059286
1.303281843
1.229768257
1.287021257
1.22801828
1.277947616
1.236107007
1.280056434
1.250875509
1.290135191
1.267873766
1.302179622
1.282527823
1.311475244
1.290367342
1.313864977
1.288900807
1.308312532
1.281562517
1.234527441
1.288742824
1.289344891
1.289316075
1.289484819
1.289514012
1.289637594
1.289787381
1.28980254
1.289831113
1.289897598
1.289974765
1.290095472
1.290164238
1.290130849
1.289992585
1.289862088
1.289881604
1.290202892
1.322267103
1.234243334
1.288668803
1.289584541
1.289498586
1.289473882
1.289539266
1.289656002
1.289755654
1.28978176
1.289860934
1.289988392
1.290021636
1.290037549
1.290089159
1.290099804
1.290039793
1.289966131
1.289949837
1.290216107
1.322653992
1.234222056
1.288495786
1.289715434
1.289605024
1.289469163
1.289574351
1.289649946
1.289667288
1.289737707
1.289892848
1.290066381
1.290058136
1.289988497
1.290002102
1.290035218
1.290045913
1.290023695
1.289974611
1.290159957
1.323848323
1.23350366
1.288327276
1.289686321
1.289625786
1.289521203
1.289628791
1.289631137
1.289646065
1.289805039
1.289950732
1.290078249
1.290095502
1.290026471
1.289973128
1.289973613
1.290024326
1.290038513
1.289962895
1.290069819
1.324739856
1.234018886
1.288437639
1.289626383
1.289626157
1.289621992
1.289658888
1.289641507
1.289733436
1.289909
1.289940073
1.289991076
1.290053799
1.290080322
1.289998883
1.289942102
1.289982229
1.290000683
1.289922104
1.289980198
1.326559133
1.233747662
1.288733767
1.289607313
1.289648981
1.289729773
1.289647487
1.289663945
1.289872141
1.289991215
1.289900799
1.289932226
1.289919995
1.290076287
1.290044308
1.289952506
1.289936657
1.289930605
1.289864491
1.289919091
1.327311491
1.235368416
1.288998053
1.289581755
1.289653334
1.289785673
1.289668786
1.289663662
1.289928974
1.290050989
1.289983841
1.294357841
1.289846338
1.290043047
1.290054484
1.289956017
1.289895964
1.289866227
1.289823337
1.28989651
1.32876193
1.235594808
1.288983402
1.289573109
1.289624746
1.289791704
1.289770673
1.289683458
1.289866316
1.290052824
1.290434272
1.308237014
1.290100143
1.289992536
1.290019443
1.289924678
1.289855632
1.289821703
1.289811659
1.289903383
1.328597328
1.238482914
1.288901978
1.289660286
1.289634289
1.289779782
1.289907325
1.289760258
1.2897403
1.289956616
1.290047904
1.291739659
1.289895391
1.289916138
1.289933533
1.289869645
1.289824989
1.289814665
1.289825554
1.28990773
1.328655109
1.239437133
1.288838296
1.289803455
1.289697982
1.289755905
1.289967288
1.289852041
1.289701732
1.289804965
1.289959494
1.290061155
1.289926811
1.289850686
1.289849137
1.289820869
1.289807688
1.289822607
1.289845683
1.289907175
1.327030005
1.244168754
1.289042391
1.2899095
1.289748491
1.289725156
1.289886468
1.289897511
1.289799982
1.289762317
1.289858001
1.289976649
1.2899116
1.28985641
1.289829287
1.289794414
1.289776478
1.289799134
1.289844502
1.289906765
1.325413615
1.245698197
1.289218768
1.28984133
1.289773444
1.289712709
1.289733768
1.289873475
1.289971192
1.289882145
1.289805625
1.289809606
1.289852671
1.289919683
1.289879119
1.289791482
1.289730016
1.289733137
1.289805991
1.289899088
1.322462533
1.252565996
1.289417107
1.289658903
1.289772932
1.289754623
1.289630607
1.289768559
1.290031296
1.290041787
1.28982719
1.289670135
1.289772908
1.289930351
1.289904773
1.289801247
1.28970969
1.289681225
1.289749905
1.289871081
1.319496296
1.254130967
1.289390788
1.289593945
1.289785348
1.289835004
1.289655432
1.289646582
1.289947119
1.290063204
1.289869254
1.289674509
1.289739477
1.289845477
1.289846753
1.289792398
1.289726477
1.289682587
1.28970878
1.289830949
1.315653338
1.26238846
1.289434931
1.289720819
1.289796722
1.289864213
1.28978032
1.289641629
1.289791272
1.289891491
1.289859861
1.289815985
1.289784756
1.289758139
1.289752201
1.289773292
1.289770296
1.289729012
1.289697687
1.289782378
1.311797558
1.263549947
1.289427432
1.289864572
1.289794743
1.289824931
1.28986436
1.289765176
1.289721513
1.289666581
1.289794412
1.289940851
1.2898687
1.289747213
1.289708556
1.289750855
1.289786992
1.289769261
1.289722057
1.289779105
1.307708905
1.273114307
1.289594811
1.28989044
1.289758079
1.289747886
1.289864044
1.289909158
1.289742362
1.289567987
1.289722674
1.289926459
1.289905706
1.289811755
1.289732559
1.289729225
1.28975118
1.289769976
1.289774815
1.289816415
1.303567375
1.273517064
1.289694803
1.289812876
1.289694439
1.289669866
1.28980475
1.289941841
1.289776111
1.289654098
1.289724344
1.28980297
1.289843183
1.289843361
1.289780074
1.289718218
1.2896985
1.289745232
1.289809083
1.289857188
1.299601309
1.284215233
1.28875884
1.289668176
1.288078537
1.289536807
1.288094545
1.289647806
1.288691973
1.289694118
1.289263072
1.289642093
1.289639265
1.289867369
1.289914529
1.289849321
1.289851721
1.28980926
1.289883068
1.289862681
1.295495335
1.324846152
1.228039773
1.305987981
1.214191787
1.284982758
1.213273168
1.273020246
1.22648467
1.275597083
1.248184201
1.288137441
1.272163246
1.303538206
1.292908955
1.315442666
1.30423744
1.316888549
1.301268909
1.306837123
1.289892872
1.209994039
1.287766334
1.289354933
1.289356141
1.289601176
1.289466956
1.289521876
1.290066842
1.290286387
1.28979081
1.289569439
1.290104735
1.290484036
1.290042521
1.289788815
1.290059975
1.290066088
1.28990807
1.290126924
1.343222688
1.209390881
1.287788944
1.289736689
1.289703748
1.289552306
1.289510138
1.289681817
1.289962507
1.289954218
1.289806042
1.289898028
1.290155924
1.290172994
1.29004344
1.290011898
1.290029208
1.289982424
1.289888857
1.29014641
1.344345326
1.208972573
1.287621142
1.289877264
1.289796303
1.289520827
1.289647592
1.289812543
1.28972887
1.289625566
1.289929535
1.290205393
1.290060915
1.289876628
1.290068642
1.290175032
1.289955257
1.289872972
1.28988132
1.290135595
1.346749155
1.207403555
1.287351277
1.289646078
1.289589917
1.289602963
1.289877623
1.289867729
1.289532254
1.289564536
1.290194087
1.290410447
1.289892427
1.289734999
1.290135648
1.290222017
1.289877685
1.289827683
1.289939281
1.290118262
1.349519318
1.207254558
1.287491489
1.289465327
1.289456996
1.289757488
1.290017329
1.289809389
1.289486899
1.289735524
1.290323804
1.290622114
1.289828869
1.289813701
1.290211334
1.290186583
1.289826372
1.289843425
1.289977804
1.290031414
1.353049002
1.206305146
1.287846962
1.289533545
1.28955115
1.289851739
1.289944436
1.289671332
1.289531594
1.289944455
1.290452197
1.297038848
1.289844914
1.28991253
1.290232768
1.29014398
1.289828265
1.289871442
1.289944353
1.289873529
1.355806783
1.207799094
1.28809519
1.289641676
1.289713114
1.289832564
1.289832857
1.289643701
1.289604972
1.29008377
1.295540514
1.404657589
1.292178025
1.289934981
1.290172603
1.290114432
1.289857362
1.289866228
1.289865367
1.289722858
1.358294246
1.207838294
1.287950778
1.289728076
1.289798965
1.289755367
1.289815397
1.289799684
1.289722932
1.290300264
1.306900439
1.49266659
1.303385694
1.290106301
1.290073177
1.290077474
1.289856862
1.28981439
1.289797083
1.289664078
1.359168782
1.211376519
1.287819859
1.289798501
1.289802483
1.289697201
1.289912274
1.290029772
1.289845714
1.289837628
1.292412841
1.352342854
1.291685746
1.289826521
1.289964462
1.29001156
1.289814707
1.289753914
1.28977634
1.289700153
1.358869086
1.213016847
1.287795185
1.289819656
1.289767121
1.289713958
1.289985549
1.290149258
1.289913888
1.289671246
1.289912377
1.293740378
1.290112964
1.289765053
1.289873343
1.28993219
1.289771078
1.289726853
1.289786084
1.28975326
1.356595343
1.219727751
1.288268593
1.28981005
1.289747813
1.28979278
1.289950047
1.290057101
1.289929962
1.289692775
1.289826116
1.290201925
1.289981038
1.289747921
1.289822566
1.289871021
1.28976465
1.289734817
1.289785649
1.289759383
1.352989359
1.222618395
1.288668149
1.289743241
1.289765845
1.289873763
1.289852062
1.289835898
1.289914596
1.289871395
1.289893049
1.28994771
1.289843589
1.289789564
1.289825944
1.289846343
1.289791163
1.289755736
1.289755049
1.289704556
1.347664573
1.232682932
1.289033655
1.28966024
1.28979022
1.289936103
1.289807234
1.289636117
1.289857656
1.290091056
1.29002291
1.289809
1.289740388
1.289842376
1.289856651
1.289832064
1.28980957
1.289777821
1.289717433
1.289638383
1.341511996
1.235899921
1.288970001
1.289681713
1.289808995
1.289955714
1.289851501
1.289591105
1.289818912
1.290178959
1.290079762
1.289719052
1.289716487
1.289897013
1.289873539
1.289772931
1.289784382
1.289792941
1.289721162
1.289633468
1.334430593
1.247842131
1.289095265
1.28983967
1.289803997
1.289866273
1.289896923
1.289737694
1.289806303
1.290010436
1.289975224
1.289738564
1.289784526
1.289950254
1.289855578
1.289688363
1.28971415
1.289793622
1.289773465
1.289710106
1.327162694
1.25055064
1.289148303
1.289955016
1.289799195
1.289743288
1.289849391
1.289931965
1.289870595
1.289740985
1.289775519
1.289801072
1.289883733
1.289966061
1.289833805
1.289648528
1.289644053
1.289756838
1.289823496
1.28982367
1.320085311
1.264625192
1.289537842
1.289893366
1.28979342
1.289717964
1.289775212
1.289990021
1.289921481
1.289624257
1.289646721
1.289804177
1.289895982
1.289907793
1.289822498
1.289709937
1.289628865
1.289687764
1.289812479
1.289890457
1.312675946
1.265921613
1.28973406
1.289772364
1.289732328
1.289752102
1.289707577
1.289901248
1.289856633
1.289690612
1.289685891
1.289834005
1.289847719
1.289765515
1.289818936
1.289837816
1.28966976
1.289613256
1.289758933
1.289884405
1.306228721
1.281445721
1.288263026
1.289645722
1.286991962
1.28942317
1.286793895
1.28904879
1.287858164
1.28943407
1.288983568
1.28974884
1.289616115
1.289780418
1.290003563
1.290064134
1.289976403
1.289639775
1.289801253
1.289758757
1.299005644
1.327748601
1.212813635
1.29978095
1.191497624
1.267197457
1.188339841
1.248362359
1.206286457
1.256456451
1.236814188
1.280551184
1.269699709
1.307963168
1.298133157
1.330757387
1.313108679
1.337245623
1.305265356
1.322487586
1.285841922
1.187245636
1.28650945
1.289418732
1.289327033
1.289890923
1.28977377
1.289349742
1.289694188
1.290126755
1.290052736
1.289905246
1.289971715
1.290124068
1.29007981
1.289888966
1.289913131
1.290112462
1.290024028
1.289977539
1.370535462
1.185782542
1.286591909
1.289735491
1.289753056
1.28965106
1.289607691
1.289585999
1.289898754
1.290124812
1.290001089
1.28991716
1.29004882
1.290137535
1.290045633
1.289950061
1.289930655
1.289942656
1.289910533
1.289992604
1.372513034
1.184835361
1.286474563
1.289826442
1.289905051
1.289517957
1.2896189
1.289910841
1.290024588
1.290034879
1.289930544
1.289934003