/*--------------------------------*- C++ -*----------------------------------*\
| =========                 |                                                 |
| \\      /  F ield         | OpenFOAM: The Open Source CFD Toolbox           |
|  \\    /   O peration     | Version:  5.x                                   |
|   \\  /    A nd           | Web:      www.OpenFOAM.org                      |
|    \\/     M anipulation  |                                                 |
\*---------------------------------------------------------------------------*/
FoamFile
{
    version     2.0;
    format      ascii;
    class       volScalarField;
    location    "2.8";
    object      p;
}
// * * * * * * * * * * * * * * * * * * * * * * * * * * * * * * * * * * * * * //

dimensions      [1 -1 -2 0 0 0 0];

internalField   nonuniform List<scalar> 
30538
(
101287.6457
101264.5756
101246.9188
101234.0563
101229.0391
101230.521
101237.3975
101247.4159
101259.1509
101270.4595
101281.0921
101291.0787
101301.3819
101312.0646
101322.3472
101330.0608
101333.7904
101331.0998
101321.8672
101308.5486
101287.7824
101265.0226
101247.6345
101234.9633
101229.988
101231.3423
101237.9611
101247.6258
101259.0288
101270.042
101280.4671
101290.3389
101300.5838
101311.2294
101321.4495
101329.1178
101332.7798
101330.1802
101321.2449
101308.3619
101288.0698
101265.9289
101249.0654
101236.7585
101231.8573
101232.9447
101239.0606
101248.0375
101258.7958
101269.2387
101279.2986
101288.9688
101299.1277
101309.7036
101319.8131
101327.4016
101330.9202
101328.5017
101320.1014
101307.9897
101288.5311
101267.3239
101251.2172
101239.423
101234.5978
101235.2804
101240.6425
101248.6566
101258.4567
101268.1356
101277.7439
101287.1698
101297.2718
101307.7505
101317.7003
101325.136
101328.515
101326.297
101318.591
101307.4566
101289.1946
101269.2492
101254.1215
101242.9453
101238.186
101238.3014
101242.6994
101249.4938
101258.1258
101266.8858
101276.0289
101285.2407
101295.3646
101305.709
101315.4391
101322.6242
101325.8637
101323.8066
101316.8702
101306.8087
101290.0705
101271.7164
101257.7679
101247.2901
101242.5481
101241.9724
101245.211
101250.588
101257.9105
101265.7381
101274.4528
101283.5317
101293.7353
101303.9478
101313.3912
101320.2267
101323.2699
101321.2955
101315.1018
101306.1032
101291.136
101274.6573
101262.0647
101252.3373
101247.574
101246.2113
101248.2033
101252.0143
101258.0573
101264.934
101273.3547
101282.3907
101292.7455
101302.8317
101311.9417
101318.3211
101321.0343
101319.1022
101313.4861
101305.419
101292.3229
101277.9017
101266.7863
101257.8601
101253.0448
101250.8794
101251.5572
101253.8842
101258.675
101264.7508
101272.965
101282.1043
101292.6136
101302.5855
101311.289
101317.1254
101319.39
101317.4095
101312.177
101304.8419
101293.5292
101281.2038
101271.6023
101263.5023
101258.658
101255.7079
101255.1836
101256.2916
101259.9113
101265.4298
101273.5431
101282.8441
101293.4954
101303.2423
101311.4382
101316.6142
101318.3394
101316.1911
101311.1889
101304.3985
101294.6701
101284.3646
101276.214
101268.9444
101264.089
101260.4714
101258.9901
101259.0706
101261.7973
101266.982
101275.1061
101284.6266
101295.3189
101304.7785
101312.3228
101316.6924
101317.7853
101315.3836
101310.5025
101304.0773
101295.711
101287.2643
101280.4898
101274.0473
101269.2569
101265.1315
101262.9428
101262.2403
101264.364
101269.3635
101277.6382
101287.3454
101297.9747
101307.0204
101313.8197
101317.2401
101317.5939
101314.7928
101309.9721
101303.8417
101296.6026
101289.7814
101284.2118
101278.573
101273.9118
101269.5107
101266.873
101265.7176
101267.5112
101272.4682
101280.8963
101290.7224
101301.1033
101309.61
101315.5182
101317.9862
101317.5975
101314.3944
101309.5612
101303.6338
101297.3319
101291.8321
101287.3123
101282.4252
101277.9982
101273.5485
101270.7504
101269.4353
101271.1736
101276.1202
101284.5949
101294.3292
101304.2462
101312.0463
101316.9598
101318.4647
101317.3771
101313.8264
101309.0598
101303.3991
101297.8873
101293.4975
101289.822
101285.6183
101281.5384
101277.2725
101274.5337
101273.3525
101275.1574
101280.0877
101288.3735
101297.7026
101306.9151
101313.8901
101317.7774
101318.4008
101316.7243
101312.9563
101308.383
101303.1138
101298.3168
101294.8269
101291.8436
101288.25
101284.6492
101280.7441
101278.3025
101277.3776
101279.3388
101284.0912
101291.8685
101300.482
101308.76
101314.7919
101317.7124
101317.6157
101315.5068
101311.762
101307.5056
101302.753
101298.655
101295.8826
101293.4644
101290.4653
101287.3964
101284.0641
101282.0094
101281.459
101283.4539
101287.8721
101294.7979
101302.4259
101309.5525
101314.5416
101316.5996
101315.9961
101313.6424
101310.144
101306.3939
101302.3324
101298.9376
101296.7779
101294.8673
101292.4621
101289.9967
101287.3256
101285.7456
101285.5374
101287.4103
101291.2395
101297.0658
101303.4226
101309.199
101313.0874
101314.4097
101313.5727
101311.2751
101308.2787
101305.1621
101301.8731
101299.1983
101297.6237
101296.2026
101294.4321
101292.6202
101290.682
101289.5857
101289.6016
101291.1609
101294.1536
101298.5987
101303.397
101307.6447
101310.3863
101311.1855
101310.3912
101308.4356
101306.1292
101303.7958
101301.3723
101299.4757
101298.4538
101297.5535
101296.4086
101295.3221
101294.115
101293.5469
101293.6519
101294.7643
101296.6719
101299.4564
101302.4097
101305.0106
101306.699
101307.1156
101306.5909
101305.2255
101303.7728
101302.3177
101300.8501
101299.8013
101299.4838
101299.1461
101298.823
101298.4167
101298.0756
101297.8463
101297.9398
101298.2996
101298.9562
101299.902
101300.8879
101301.7919
101302.3653
101302.5364
101302.314
101301.8443
101301.2714
101300.8072
101300.2821
101288.4526
101266.3675
101249.6219
101237.3125
101232.5767
101234.297
101241.1139
101251.0473
101262.609
101273.8423
101284.4009
101294.1141
101303.67
101313.0886
101321.9421
101328.4601
101331.3298
101328.4139
101319.8587
101307.8928
101288.5636
101266.7619
101250.2579
101238.129
101233.4557
101235.0978
101241.7111
101251.3281
101262.5804
101273.5123
101283.8515
101293.4319
101302.9198
101312.3067
101321.1135
101327.5885
101330.4368
101327.618
101319.3148
101307.7155
101288.7964
101267.5565
101251.5295
101239.7511
101235.1883
101236.652
101242.8489
101251.8485
101262.5007
101272.8685
101282.8155
101292.1555
101301.5361
101310.8715
101319.5938
101326.0134
101328.7707
101326.1555
101318.3164
101307.369
101289.1722
101268.7781
101253.4527
101242.1823
101237.7494
101238.9099
101244.4634
101252.5845
101262.3583
101271.9695
101281.4199
101290.4601
101299.7516
101309.0161
101317.6122
101323.9343
101326.6008
101324.2227
101316.9947
101306.8788
101289.7179
101270.4615
101256.0581
101245.421
101241.1202
101241.8194
101246.5152
101253.5248
101262.2079
101270.9166
101279.8456
101288.5991
101297.8638
101307.0277
101315.4635
101321.6154
101324.207
101322.0273
101315.4812
101306.2843
101290.4501
101272.6313
101259.3502
101249.4431
101245.2445
101245.3384
101248.9809
101254.6758
101262.133
101269.9075
101278.3484
101286.8762
101296.1796
101305.2416
101313.4811
101319.3873
101321.8594
101319.7958
101313.9133
101305.6377
101291.3635
101275.247
101263.2588
101254.1362
101250.0011
101249.3729
101251.8478
101256.0678
101262.2959
101269.1398
101277.2054
101285.5962
101295.002
101303.9831
101312.007
101317.5757
101319.8061
101317.8168
101312.4576
101305.0097
101292.4143
101278.1828
101267.5968
101259.2877
101255.1639
101253.7468
101255.0348
101257.7542
101262.8138
101268.8349
101276.6475
101285.0182
101294.5417
101303.4558
101311.2119
101316.3644
101318.2431
101316.2589
101311.2534
101304.4708
101293.5259
101281.2352
101272.0792
101264.5711
101260.4397
101258.2351
101258.3742
101259.8628
101263.7736
101269.2192
101276.8281
101285.3051
101294.935
101303.6858
101311.0801
101315.7287
101317.1766
101315.0821
101310.313
101304.0448
101294.6212
101284.2448
101276.4478
101269.7032
101265.5417
101262.6433
101261.7949
101262.2811
101265.268
101270.3219
101277.8659
101286.4929
101296.1854
101304.6737
101311.5429
101315.5645
101316.511
101314.2189
101309.6187
101303.7166
101295.6564
101287.0946
101280.5789
101274.5515
101270.3877
101266.917
101265.3097
101265.0125
101267.3243
101272.1281
101279.7488
101288.5261
101298.1729
101306.3188
101312.524
101315.7101
101316.0773
101313.5058
101309.0092
101303.4615
101296.5715
101289.655
101284.2455
101278.8828
101274.7537
101270.9192
101268.8031
101268.0043
101269.8945
101274.5729
101282.3071
101291.193
101300.6153
101308.2615
101313.6822
101316.0547
101315.8138
101312.9338
101308.4861
101303.2105
101297.3429
101291.7934
101287.3466
101282.5962
101278.5834
101274.6112
101272.2548
101271.217
101272.9295
101277.5394
101285.2942
101294.1385
101303.1352
101310.1147
101314.6305
101316.1601
101315.3497
101312.2288
101307.8868
101302.9372
101297.9608
101293.5219
101289.8685
101285.6913
101281.9158
101278.054
101275.6722
101274.6538
101276.3208
101280.857
101288.4429
101296.9628
101305.3196
101311.5333
101315.1043
101315.8357
101314.5452
101311.2941
101307.1689
101302.6264
101298.4398
101294.8979
101291.8939
101288.2572
101284.8644
101281.2897
101279.1291
101278.2567
101279.9836
101284.3226
101291.4778
101299.3619
101306.8618
101312.2217
101314.8985
101314.9692
101313.3413
101310.1133
101306.3262
101302.2767
101298.7991
101295.9853
101293.5132
101290.4534
101287.5067
101284.4403
101282.59
101282.0291
101283.7256
101287.7412
101294.1287
101301.1184
101307.5703
101311.9927
101313.8738
101313.4684
101311.6465
101308.6449
101305.339
101301.9054
101299.078
101296.904
101294.927
101292.452
101290.0658
101287.596
101286.1606
101285.8777
101287.4549
101290.9284
101296.2893
101302.131
101307.3713
101310.8012
101312.0037
101311.3472
101309.5741
101307.0093
101304.2757
101301.52
101299.3176
101297.7506
101296.2705
101294.4485
101292.6669
101290.8844
101289.8722
101289.8039
101291.109
101293.819
101297.9061
101302.3257
101306.1715
101308.5847
101309.2976
101308.6467
101307.1425
101305.1795
101303.1328
101301.1097
101299.5628
101298.5559
101297.6197
101296.4383
101295.3624
101294.2503
101293.7205
101293.7621
101294.7063
101296.4402
101299.004
101301.7204
101304.0486
101305.5386
101305.8937
101305.4694
101304.4084
101303.1896
101301.9067
101300.6879
101299.836
101299.5283
101299.1859
101298.8497
101298.4526
101298.1358
101297.9218
101297.9765
101298.2781
101298.8729
101299.7413
101300.646
101301.4504
101301.9591
101302.1116
101301.9215
101301.573
101301.0763
101300.6746
101300.2246
101289.9921
101269.9913
101255.2656
101244.4242
101240.5885
101242.827
101249.6419
101259.3403
101270.5382
101281.3459
101291.3909
101300.1588
101308.1504
101315.3535
101321.8127
101326.3503
101327.7612
101324.4062
101316.6948
101306.7514
101290.0648
101270.2823
101255.7492
101245.0671
101241.3218
101243.5584
101250.2326
101259.677
101270.5854
101281.0816
101290.8877
101299.5186
101307.433
101314.6296
101321.0675
101325.6038
101327.0268
101323.788
101316.2727
101306.5961
101290.2208
101270.8785
101256.7399
101246.3687
101242.7905
101244.9696
101251.3612
101260.2791
101270.6589
101280.5672
101289.9586
101298.3089
101306.1134
101313.2822
101319.7067
101324.2291
101325.6749
101322.6497
101315.5029
101306.301
101290.4748
101271.8072
101258.2612
101248.3603
101244.9679
101247.0071
101252.9079
101261.0958
101270.671
101279.8566
101288.6818
101296.6691
101304.3418
101311.4911
101317.9008
101322.4366
101323.8726
101321.1469
101314.4834
101305.8951
101290.8545
101273.1099
101260.3693
101251.0666
101247.8872
101249.607
101254.849
101262.0738
101270.6946
101278.9671
101287.2178
101294.7861
101302.3988
101309.5007
101315.9023
101320.4078
101321.8807
101319.4205
101313.3141
101305.41
101291.3827
101274.8287
101263.08
101254.4912
101251.4889
101252.741
101257.0974
101263.1969
101270.6828
101278.0401
101285.6678
101292.9034
101300.4778
101307.5747
101313.944
101318.3843
101319.8667
101317.616
101312.0695
101304.8875
101292.0793
101276.9652
101266.3718
101258.5466
101255.7071
101256.2946
101259.676
101264.4418
101270.8178
101277.2068
101284.3777
101291.2557
101298.9087
101305.9908
101312.3216
101316.6193
101318.0298
101315.9376
101310.8794
101304.3681
101292.927
101279.4459
101270.0951
101263.0506
101260.2681
101260.1286
101262.4102
101265.8149
101271.0656
101276.6053
101283.3212
101290.0792
101297.7956
101304.9189
101311.1556
101315.2679
101316.5134
101314.5491
101309.84
101303.9094
101293.8777
101282.115
101274.0297
101267.717
101264.9329
101264.0014
101265.2613
101267.3541
101271.6067
101276.4819
101282.9063
101289.5565
101297.3898
101304.4321
101310.5223
101314.34
101315.3672
101313.3895
101308.9885
101303.5233
101294.8662
101284.853
101277.9593
101272.3137
101269.4374
101267.7789
101268.0265
101269.1529
101272.3943
101276.8662
101283.0465
101289.7834
101297.6098
101304.4991
101310.2622
101313.7301
101314.467
101312.4124
101308.2687
101303.1824
101295.8507
101287.5493
101281.7789
101276.7129
101273.7227
101271.4115
101270.8108
101271.1163
101273.6261
101277.7857
101283.9565
101290.7557
101298.5305
101305.0542
101310.3247
101313.23
101313.6353
101311.4861
101307.5504
101302.869
101296.7537
101290.0569
101285.2342
101280.6741
101277.546
101274.7851
101273.5043
101273.2359
101275.2004
101279.2045
101285.4081
101292.3049
101299.8462
101305.9455
101310.5661
101312.8656
101312.884
101310.5912
101306.812
101302.5411
101297.5382
101292.1955
101288.2003
101284.0925
101280.9138
101277.8792
101276.2018
101275.5213
101277.2034
101281.0669
101287.2845
101294.1713
101301.3349
101306.8249
101310.6975
101312.3344
101311.9956
101309.6297
101306.0146
101302.1923
101298.1712
101293.9319
101290.6077
101286.93
101283.8202
101280.7706
101278.8834
101278.0444
101279.5375
101283.2875
101289.3991
101296.0955
101302.6839
101307.5123
101310.5674
101311.5665
101310.9111
101308.5397
101305.2
101301.8227
101298.6582
101295.2966
101292.5272
101289.277
101286.4193
101283.5181
101281.7016
101280.8382
101282.2454
101285.7818
101291.6051
101297.8439
101303.7287
101307.8368
101310.1182
101310.5454
101309.6625
101307.3663
101304.3803
101301.4702
101299.0098
101296.3684
101294.0556
101291.3003
101288.7787
101286.236
101284.6046
101283.926
101285.1815
101288.4429
101293.697
101299.2545
101304.2942
101307.6522
101309.238
101309.2311
101308.2286
101306.1026
101303.543
101301.1522
101299.2693
101297.2516
101295.3951
101293.1566
101291.0974
101289.0248
101287.7096
101287.218
101288.3452
101291.1425
101295.572
101300.2411
101304.3351
101306.9023
101307.9208
101307.6213
101306.6416
101304.8454
101302.7513
101300.8743
101299.4849
101298.0589
101296.6487
101295.008
101293.4525
101291.9476
101290.9729
101290.6894
101291.5972
101293.7828
101297.1563
101300.7217
101303.7363
101305.5298
101306.108
101305.7281
101304.9035
101303.5456
101301.9749
101300.6181
101299.685
101298.7825
101297.896
101296.8185
101295.8741
101294.9157
101294.395
101294.2674
101294.9408
101296.3605
101298.4969
101300.6864
101302.5031
101303.5779
101303.8439
101303.5691
101302.9995
101302.1763
101301.1947
101300.3772
101299.8822
101299.6295
101299.2939
101299.0038
101298.6342
101298.3766
101298.1462
101298.1402
101298.334
101298.8234
101299.5549
101300.3239
101300.9234
101301.2825
101301.3878
101301.2708
101301.085
101300.7598
101300.4326
101300.1224
101292.157
101275.081
101263.6341
101255.1894
101253.0217
101255.992
101262.9772
101272.427
101282.8883
101292.8362
101301.5969
101308.6685
101314.4432
101319.03
101322.8479
101325.0794
101324.5816
101320.7271
101313.6254
101305.6812
101292.1907
101275.2752
101263.9695
101255.6569
101253.604
101256.6102
101263.4891
101272.704
101282.9008
101292.5446
101301.0814
101308.0046
101313.7009
101318.2896
101322.1455
101324.424
101323.9949
101320.2739
101313.3348
101305.5535
101292.2685
101275.6853
101264.673
101256.6189
101254.763
101257.8016
101264.4552
101273.2142
101282.9154
101292.0052
101300.1244
101306.7507
101312.3171
101316.9117
101320.8396
101323.2281
101322.9367
101319.4564
101312.8084
101305.3188
101292.408
101276.3457
101265.793
101258.118
101256.5017
101259.4967
101265.7829
101273.9029
101282.9159
101291.2702
101298.8151
101305.0406
101310.4628
101315.0698
101319.0993
101321.6522
101321.5491
101318.3798
101312.1177
101305.0046
101292.6342
101277.3092
101267.3918
101260.2112
101258.8335
101261.6583
101267.4141
101274.7338
101282.8715
101290.3612
101297.2351
101303.0092
101308.3184
101312.9635
101317.116
101319.8363
101319.9174
101317.1094
101311.2981
101304.6362
101292.9798
101278.641
101269.5285
101262.9417
101261.7678
101264.2645
101269.3172
101275.6695
101282.8132
101289.3319
101295.5103
101300.8163
101306.0642
101310.7826
101315.0695
101317.9074
101318.1772
101315.693
101310.3881
101304.2301
101293.4705
101280.3705
101272.209
101266.2723
101265.2239
101267.236
101271.4209
101276.6464
101282.7171
101288.2428
101293.7712
101298.62
101303.8772
101308.7125
101313.1356
101316.0474
101316.4688
101314.2616
101309.4564
101303.8221
101294.1107
101282.4504
101275.3349
101270.0411
101269.0201
101270.4149
101273.6295
101277.6273
101282.6648
101287.268
101292.1543
101296.6823
101301.9866
101306.9567
101311.4851
101314.4128
101314.9111
101312.9896
101308.5845
101303.4419
101294.8745
101284.7432
101278.6937
101274.0093
101272.8918
101273.597
101275.8126
101278.6493
101282.6355
101286.5377
101290.859
101295.1977
101300.5681
101305.5826
101310.1275
101313.0141
101313.5355
101311.7701
101307.7876
101303.0911
101295.7117
101287.163
101282.1062
101277.985
101276.6583
101276.6599
101277.8749
101279.714
101282.725
101286.0755
101290.0673
101294.2819
101299.5969
101304.5744
101309.0139
101311.7825
101312.2576
101310.5757
101306.9974
101302.7358
101296.5845
101289.5966
101285.4478
101281.7947
101280.2241
101279.5111
101279.809
101280.7771
101283.0052
101285.9755
101289.8062
101293.9452
101299.1184
101303.8607
101308.0078
101310.5557
101310.9328
101309.352
101306.0919
101302.3664
101297.4091
101291.8997
101288.4724
101285.2292
101283.3854
101282.054
101281.5936
101281.8115
101283.5316
101286.2691
101290.0747
101294.2002
101299.1029
101303.421
101307.1078
101309.2635
101309.5409
101308.0039
101305.1006
101301.9402
101298.1355
101293.834
101291.0348
101288.1344
101286.1014
101284.3156
101283.259
101282.9186
101284.3216
101286.9423
101290.7563
101294.8376
101299.3597
101303.1217
101306.249
101308.009
101308.1251
101306.6587
101304.0735
101301.4866
101298.7104
101295.3668
101293.0634
101290.4585
101288.3761
101286.3189
101284.9005
101284.1984
101285.3886
101287.9511
101291.7514
101295.7182
101299.7433
101302.9059
101305.4135
101306.7493
101306.7101
101305.3385
101303.0779
101301.0425
101299.136
101296.5425
101294.6311
101292.3312
101290.3362
101288.2096
101286.667
101285.7901
101286.8182
101289.2702
101292.9519
101296.6847
101300.1786
101302.735
101304.6215
101305.5341
101305.3637
101304.1338
101302.2102
101300.6617
101299.4123
101297.4469
101295.8484
101293.9002
101292.0786
101290.0887
101288.5806
101287.7399
101288.6097
101290.8637
101294.2605
101297.6431
101300.5479
101302.5275
101303.8265
101304.3643
101304.1177
101303.0689
101301.508
101300.3619
101299.5965
101298.1578
101296.8807
101295.2991
101293.7625
101292.0619
101290.7621
101290.0343
101290.7535
101292.6649
101295.6319
101298.5073
101300.8096
101302.2412
101303.0441
101303.2762
101303.0295
101302.217
101300.9886
101300.1581
101299.7363
101298.7595
101297.7906
101296.6383
101295.4395
101294.1805
101293.1414
101292.6322
101293.1534
101294.6771
101296.9696
101299.1806
101300.8608
101301.8245
101302.2448
101302.2889
101302.1158
101301.5113
101300.627
101300.045
101299.8492
101299.2346
101298.622
101297.8419
101297.0972
101296.2635
101295.6739
101295.3681
101295.7872
101296.8048
101298.3103
101299.6865
101300.6756
101301.1999
101301.3555
101301.334
101301.1856
101300.8902
101300.3366
101300.0114
101299.9442
101299.7886
101299.5738
101299.3804
101299.0978
101298.8512
101298.5962
101298.4888
101298.5861
101298.9328
101299.4579
101299.9663
101300.3089
101300.453
101300.5225
101300.4907
101300.4743
101300.3336
101300.1527
101299.9924
101294.9461
101281.7701
101274.5061
101268.9128
101268.9816
101272.8779
101280.0711
101288.9599
101298.2835
101306.5011
101313.1227
101317.6876
101320.9694
101323.0923
101324.6476
101324.8814
101322.6227
101318.3015
101311.3915
101304.9749
101294.9517
101281.8828
101274.7347
101269.256
101269.4036
101273.3208
101280.4039
101289.0834
101298.1437
101306.1156
101312.5183
101316.9422
101320.1712
101322.333
101323.9471
101324.2907
101322.163
101317.9959
101311.2213
101304.9199
101294.9765
101282.1459
101275.2357
101269.9652
101270.2663
101274.1873
101281.0666
101289.3189
101297.9899
101305.4104
101311.4568
101315.5476
101318.7029
101320.904
101322.6547
101323.1964
101321.3248
101317.4413
101310.9281
101304.8148
101295.0425
101282.6077
101276.0451
101271.0772
101271.5427
101275.4329
101281.9854
101289.7202
101297.7131
101304.476
101309.8769
101313.6582
101316.6552
101318.9662
101320.8867
101321.7085
101320.1667
101316.7004
101310.5377
101304.6649
101295.1749
101283.3344
101277.2474
101272.6517
101273.3007
101277.0342
101283.1601
101290.1913
101297.4939
101303.304
101308.1343
101311.298
101314.2312
101316.6098
101318.7694
101319.9139
101318.7641
101315.7709
101310.0539
101304.4537
101295.4102
101284.3956
101278.8909
101274.7635
101275.5275
101278.9984
101284.4958
101290.7554
101297.0595
101301.9771
101305.8351
101308.6479
101311.4321
101314.0099
101316.4021
101317.8729
101317.1179
101314.6595
101309.4228
101304.1945
101295.784
101285.8363
101281.0419
101277.4283
101278.254
101281.2823
101286.0616
101291.33
101296.7137
101300.4116
101303.8927
101305.8603
101308.6735
101311.363
101314.0544
101315.7562
101315.3807
101313.3969
101308.6898
101303.8923
101296.3012
101287.6171
101283.616
101280.5252
101281.2798
101283.7768
101287.6472
101291.8728
101296.085
101299.0339
101301.372
101303.1906
101305.94
101308.8604
101311.7308
101313.6927
101313.5631
101312.0315
101307.8534
101303.5665
101296.9295
101289.606
101286.4282
101283.8179
101284.3898
101286.2626
101289.2365
101292.3522
101295.5304
101297.6284
101299.382
101300.8346
101303.6437
101306.5676
101309.5695
101311.6117
101311.7351
101310.4747
101307.0014
101303.1976
101297.6208
101291.7263
101289.2848
101287.1364
101287.3847
101288.6316
101290.5865
101292.7157
101294.8353
101296.3276
101297.5375
101298.9093
101301.4271
101304.4674
101307.4205
101309.5247
101309.808
101308.8299
101305.9544
101302.7911
101298.3302
101293.8863
101292.0426
101290.2794
101290.1912
101290.7186
101291.7704
101292.8956
101294.3081
101295.2853
101296.2684
101297.415
101299.7738
101302.5201
101305.4139
101307.4443
101307.8559
101307.0809
101304.7874
101302.3286
101298.9773
101295.782
101294.442
101293.0201
101292.5087
101292.4071
101292.5706
101292.9086
101293.7557
101294.5732
101295.3934
101296.3026
101298.2786
101300.765
101303.3809
101305.3419
101305.7949
101305.2436
101303.5106
101301.8086
101299.5206
101297.2942
101296.3856
101295.0799
101294.3509
101293.6018
101293.1348
101292.8197
101293.4114
101294.094
101294.9382
101295.7174
101297.307
101299.3518
101301.6829
101303.4002
101303.857
101303.4319
101302.2527
101301.2272
101299.9051
101298.433
101297.7948
101296.6168
101295.6628
101294.4932
101293.5036
101292.8225
101293.1956
101293.9142
101294.808
101295.5519
101296.7215
101298.3304
101300.276
101301.75
101302.1405
101301.8508
101301.1371
101300.676
101300.1377
101299.2099
101298.7849
101297.7433
101296.6743
101295.2386
101293.9932
101293.024
101293.3475
101294.0725
101295.086
101295.7478
101296.5695
101297.7037
101299.2201
101300.4344
101300.769
101300.6031
101300.2588
101300.1815
101300.2361
101299.7111
101299.417
101298.5262
101297.4199
101295.9196
101294.5446
101293.5582
101293.8091
101294.5873
101295.6136
101296.2236
101296.7204
101297.4307
101298.4802
101299.4412
101299.7571
101299.7234
101299.6249
101299.8147
101300.2388
101300.0207
101299.8111
101299.0772
101298.0514
101296.6399
101295.3813
101294.4517
101294.7083
101295.413
101296.41
101296.9101
101297.1745
101297.5067
101298.1647
101298.8774
101299.1996
101299.2548
101299.2774
101299.6171
101300.2044
101300.1636
101300.0007
101299.4763
101298.6085
101297.4785
101296.4209
101295.7177
101295.9042
101296.5475
101297.3427
101297.7343
101297.8233
101297.9225
101298.2491
101298.7524
101299.0535
101299.1555
101299.2353
101299.5661
101300.1328
101300.0871
101300.009
101299.5365
101299.0461
101298.2312
101297.6341
101297.2074
101297.3932
101297.8636
101298.449
101298.6946
101298.676
101298.6522
101298.7751
101299.0742
101299.2928
101299.4132
101299.4763
101299.6807
101300.0405
101300.127
101300.0592
101300.0003
101299.7644
101299.5343
101299.2188
101299.0934
101299.0872
101299.2669
101299.4826
101299.5932
101299.5829
101299.5763
101299.6421
101299.7558
101299.8586
101299.8426
101299.8597
101299.8752
101298.009
101289.371
101286.9032
101284.1975
101286.8213
101291.6832
101298.8023
101306.8059
101314.3429
101320.2042
101323.9515
101325.6274
101326.4173
101326.5996
101326.2575
101324.628
101321.1992
101316.7011
101309.9216
101304.8385
101298.0077
101289.459
101287.0877
101284.4588
101287.1058
101291.9348
101298.9421
101306.7604
101314.0938
101319.7032
101323.2548
101324.8196
101325.58
101325.7915
101325.5072
101324.0523
101320.7651
101316.4593
101309.8154
101304.7777
101298.0161
101289.6711
101287.4802
101285.0132
101287.6934
101292.4503
101299.2659
101306.7227
101313.6949
101318.791
101321.9435
101323.2622
101323.9685
101324.2353
101324.073
101322.9575
101319.9598
101316.0358
101309.6466
101304.67
101298.0643
101290.0419
101288.1233
101285.9162
101288.5501
101293.2183
101299.7408
101306.7298
101313.0924
101317.5442
101320.0523
101321.0486
101321.6214
101321.9411
101321.9721
101321.4328
101318.8834
101315.4822
101309.4469
101304.5137
101298.1585
101290.6359
101289.0728
101287.1801
101289.7648
101294.264
101300.3886
101306.7848
101312.4114
101316.0503
101317.9606
101318.4059
101318.8459
101319.255
101319.5734
101319.5751
101317.5548
101314.776
101309.17
101304.3056
101298.323
101291.5236
101290.4062
101288.88
101291.3776
101295.6076
101301.1636
101306.8811
101311.5372
101314.2679
101315.3931
101315.4214
101315.7159
101316.2492
101316.8994
101317.4644
101315.9993
101313.8613
101308.7647
101304.0578
101298.5867
101292.7745
101292.1133
101291.0824
101293.4286
101297.2653
101302.1023
101307.0066
101310.5303
101312.2041
101313.2145
101312.2222
101312.4413
101313.1231
101314.0796
101315.1216
101314.1728
101312.6808
101308.1548
101303.7627
101298.9896
101294.3296
101294.1861
101293.6725
101295.8213
101299.1395
101303.174
101306.9657
101309.3503
101310.0307
101309.9127
101309.1157
101309.1622
101309.9934
101311.2798
101312.509
101312.1277
101311.1162
101307.3275
101303.4258
101299.5149
101296.0659
101296.441
101296.4025
101298.3063
101301.0036
101304.131
101306.7705
101308.0808
101307.8424
101307.1875
101306.0523
101306.0016
101306.8066
101308.2996
101309.6425
101309.7436
101309.1726
101306.2549
101303.0555
101299.9888
101297.9144
101298.7614
101299.0967
101300.6792
101302.6782
101304.871
101306.3956
101306.7678
101305.858
101304.4897
101303.2551
101302.9896
101303.7178
101305.2137
101306.6395
101307.1459
101307.0332
101304.9262
101302.5858
101300.4416
101299.7263
101300.9256
101301.5323
101302.7349
101304.0095
101305.2662
101305.8249
101305.4703
101304.1217
101302.2907
101300.709
101300.2206
101300.832
101302.1833
101303.639
101304.4054
101304.7286
101303.4897
101302.0361
101300.8745
101301.1269
101302.6305
101303.3074
101304.1781
101304.731
101305.1849
101304.964
101304.147
101302.532
101300.4378
101298.5554
101297.7266
101298.1797
101299.3585
101300.7875
101301.6683
101302.3828
101301.9839
101301.4847
101301.2197
101302.1267
101303.8108
101304.4901
101304.912
101304.8968
101304.672
101303.888
101302.8264
101301.1425
101298.9467
101296.7893
101295.6854
101295.887
101296.919
101298.2219
101299.1693
101300.1491
101300.5026
101300.9891
101301.416
101302.7303
101304.4431
101305.0542
101305.1047
101304.5868
101303.8378
101302.713
101301.5615
101299.953
101297.7901
101295.4663
101294.2239
101294.2167
101295.179
101296.3174
101297.1907
101298.2346
101299.2417
101300.5286
101301.4491
101302.9818
101304.626
101305.1211
101304.8765
101303.9777
101302.8893
101301.6209
101300.5454
101299.1214
101297.1841
101294.9125
101293.471
101293.2544
101294.0225
101295.0284
101295.7908
101296.8865
101298.2816
101300.0699
101301.3429
101302.9499
101304.4217
101304.7738
101304.2904
101303.2165
101301.9447
101300.7269
101299.8237
101298.6873
101297.0754
101294.9476
101293.3713
101292.908
101293.4535
101294.3501
101295.0558
101296.1164
101297.7037
101299.6704
101301.1431
101302.6503
101303.8797
101304.0949
101303.5184
101302.4208
101301.1775
101300.0811
101299.4586
101298.5891
101297.342
101295.4597
101293.9058
101293.2574
101293.6094
101294.4212
101295.0736
101296.0308
101297.5519
101299.4049
101300.8768
101302.1346
101303.0312
101303.1775
101302.5958
101301.6551
101300.5978
101299.7758
101299.3675
101298.8272
101297.8771
101296.3926
101295.0175
101294.3645
101294.5478
101295.2411
101295.8093
101296.5622
101297.8216
101299.323
101300.5534
101301.2976
101301.8587
101301.7873
101301.4181
101300.6925
101300.1803
101299.6309
101299.5171
101299.2247
101298.6751
101297.7
101296.7488
101296.2728
101296.3513
101296.8334
101297.2288
101297.717
101298.5333
101299.4736
101300.193
101300.5626
101300.7136
101300.8131
101300.5885
101300.3449
101299.9491
101299.8886
101299.7898
101299.7319
101299.5195
101299.1986
101298.8392
101298.7134
101298.8239
101298.998
101299.1376
101299.2274
101299.5021
101299.777
101301.0942
101296.4035
101299.1489
101299.4022
101304.1053
101309.8164
101316.4888
101323.0735
101328.6635
101331.8648
101332.7012
101331.3924
101329.9188
101328.3752
101326.356
101323.2281
101319.024
101314.8085
101308.4028
101305.229
101301.1129
101296.5035
101299.3402
101299.6266
101304.3016
101309.9205
101316.4334
101322.8801
101328.2522
101331.2372
101331.933
101330.7015
101329.2221
101327.6545
101325.6357
101322.6698
101318.6517
101314.72
101308.3598
101305.0958
101301.1458
101296.7527
101299.7414
101300.1087
101304.6993
101310.1497
101316.396
101322.4681
101327.5861
101329.8849
101330.4361
101329.1147
101327.8003