/*--------------------------------*- C++ -*----------------------------------*\
| =========                 |                                                 |
| \\      /  F ield         | OpenFOAM: The Open Source CFD Toolbox           |
|  \\    /   O peration     | Version:  5.x                                   |
|   \\  /    A nd           | Web:      www.OpenFOAM.org                      |
|    \\/     M anipulation  |                                                 |
\*---------------------------------------------------------------------------*/
FoamFile
{
    version     2.0;
    format      ascii;
    class       volVectorField;
    location    "2.8";
    object      U;
}
// * * * * * * * * * * * * * * * * * * * * * * * * * * * * * * * * * * * * * //

dimensions      [0 1 -1 0 0 0 0];

internalField   nonuniform List<vector> 
30538
(
(-0.08931059541 0.001508882203 -0.00102606357)
(-0.07634439344 0.003557270874 -0.002218880086)
(-0.06927607585 0.00602709565 -0.002943510784)
(-0.04103865108 0.007257948774 -0.003495520738)
(-0.02219854243 0.008409454652 -0.002186882423)
(0.008468653998 0.00806163011 -0.002206292128)
(0.02209931663 0.007755539923 0.000240353747)
(0.04685958877 0.005785023286 -0.0002094528825)
(0.05372526079 0.004023947764 0.002047370953)
(0.07217454009 0.0005874241002 0.00115406458)
(0.07579137572 -0.002347633004 0.002205772494)
(0.08651099955 -0.0063425349 0.0008427021528)
(0.08051811808 -0.009068917313 3.57161238e-05)
(0.07277552472 -0.01194802452 -0.001176052129)
(0.04786157498 -0.01295619875 -0.003059603067)
(0.01770456187 -0.01323040814 -0.002913619722)
(-0.02252797606 -0.01160222367 -0.004879432579)
(-0.06047670678 -0.009335337566 -0.00270878624)
(-0.09350787276 -0.005859881158 -0.003593400197)
(-0.1107418134 -0.002201072504 -5.570149073e-05)
(-0.08569076323 0.00435188391 -0.001014828674)
(-0.07318608129 0.01020355782 -0.002185683379)
(-0.06666887289 0.01726847288 -0.002896259263)
(-0.03934834047 0.0209099925 -0.00344052112)
(-0.02162191159 0.02398385153 -0.002107267487)
(0.008008155197 0.02326491342 -0.002128597102)
(0.02049745031 0.02166197793 0.0003284891957)
(0.04424073357 0.01661088692 -0.0001462766355)
(0.05006563886 0.010345233 0.002076139503)
(0.06770117454 0.001533093415 0.001219832439)
(0.07089245587 -0.008331126803 0.002229728066)
(0.08175761923 -0.01848664578 0.0009718055164)
(0.07655477296 -0.0274060248 0.0001498399832)
(0.07002956325 -0.0345730162 -0.0009587430451)
(0.04694971964 -0.03805187868 -0.002865264943)
(0.0186497427 -0.038182606 -0.002682468577)
(-0.0197835652 -0.03382653849 -0.004711323753)
(-0.056413906 -0.02698156854 -0.002554183324)
(-0.08841418544 -0.01701364431 -0.003510874599)
(-0.1050923286 -0.006321543341 -1.521333106e-05)
(-0.07889201608 0.006869970188 -0.0009926561809)
(-0.06728339659 0.01582156978 -0.002105264739)
(-0.06171460799 0.0271098785 -0.002794247429)
(-0.03630451462 0.03265313599 -0.003312239404)
(-0.02052792541 0.03784274952 -0.001935426906)
(0.006840098112 0.03646908777 -0.001962242532)
(0.01741728267 0.03452769828 0.0005632682437)
(0.03888818109 0.02614020535 -1.678565027e-06)
(0.04309761925 0.01718557132 0.002341679733)
(0.05906270523 0.002748059857 0.001376146132)
(0.0616665932 -0.01149388834 0.002576524569)
(0.07306199541 -0.02809277226 0.001255136688)
(0.06916703136 -0.04117516693 0.0006374748057)
(0.06525533468 -0.05287061736 -0.00051426918)
(0.04529526425 -0.05779549956 -0.002315283294)
(0.02067801132 -0.05844539272 -0.002233233435)
(-0.0146097219 -0.05169598399 -0.004278551319)
(-0.04860168163 -0.04137571779 -0.002257100293)
(-0.07881522048 -0.02597640759 -0.003308258169)
(-0.09442685606 -0.00968704851 4.283775875e-05)
(-0.06947877598 0.008768326349 -0.0009603597992)
(-0.05899343653 0.01975071366 -0.002012384119)
(-0.05477474328 0.03425164323 -0.002682756172)
(-0.03177357438 0.041195176 -0.003192994536)
(-0.01891195814 0.04792503921 -0.001792247143)
(0.005672782198 0.04626185669 -0.001824490759)
(0.01321572079 0.04365162782 0.0007284874736)
(0.03201415362 0.03325521164 0.0001512626222)
(0.0335730481 0.02159895502 0.002382409582)
(0.04754454325 0.00393172419 0.001547111026)
(0.04913765732 -0.01427912318 0.00258396751)
(0.06082429975 -0.03439685643 0.001560233524)
(0.05908096435 -0.05101360702 0.0008754822705)
(0.0583040662 -0.06499171951 4.941093531e-07)
(0.04299424841 -0.07117792641 -0.001872683016)
(0.02294493713 -0.07184112432 -0.001680273794)
(-0.007718829963 -0.0637025144 -0.00385438091)
(-0.0382426641 -0.05096663744 -0.001869533166)
(-0.06586355437 -0.03192692812 -0.003111256111)
(-0.08013155719 -0.01192109122 0.0001402437384)
(-0.05855655733 0.01005263212 -0.0009172284143)
(-0.04940567252 0.02163610604 -0.001862770023)
(-0.04657561676 0.03850573193 -0.002504243129)
(-0.02666675694 0.04583624999 -0.002990775022)
(-0.0169328356 0.05414472384 -0.001553884515)
(0.003827702279 0.05190583035 -0.001609266806)
(0.00824620627 0.04969144996 0.001088102937)
(0.02333772648 0.03763518376 0.0003768207122)
(0.02242097599 0.02545233666 0.002817256072)
(0.0338158692 0.005439551147 0.001771553312)
(0.03462583623 -0.01363175188 0.003100754571)
(0.04714521246 -0.03633198506 0.001938598393)
(0.04759010188 -0.05379956738 0.001585421119)
(0.05102325893 -0.06936615123 0.0006018519204)
(0.04043842994 -0.07566825949 -0.001101533279)
(0.02595030921 -0.07678836444 -0.00106789281)
(0.0001600723698 -0.06802077356 -0.003237655492)
(-0.02613144101 -0.05458089215 -0.001456179273)
(-0.05101772933 -0.03409770529 -0.002830169708)
(-0.06370630152 -0.01277074933 0.0002175587676)
(-0.04692369682 0.01047083287 -0.0008717415116)
(-0.03901837908 0.0213516848 -0.001734044708)
(-0.03769863686 0.0391481713 -0.002361053875)
(-0.02075660206 0.04612640785 -0.002843369721)
(-0.01462064675 0.05529120434 -0.001445375987)
(0.002537475831 0.05279488393 -0.001479733615)
(0.003155316801 0.05106468975 0.001182374275)
(0.01491910594 0.03876839069 0.0005493896034)
(0.01086646132 0.0268996412 0.002775711707)
(0.02001729645 0.006943511877 0.001929197495)
(0.01966642713 -0.01155839228 0.002955163275)
(0.03247560978 -0.03387145402 0.002196118164)
(0.03577966 -0.05066239614 0.001674362463)
(0.04286458131 -0.06581804412 0.001050339434)
(0.03772668379 -0.07163696649 -0.0007736311561)
(0.02834896893 -0.07301953903 -0.0005710922162)
(0.008006928785 -0.06451017824 -0.002876167851)
(-0.01424003036 -0.05203757913 -0.001101912378)
(-0.03609223574 -0.03229421957 -0.002661195809)
(-0.04727153838 -0.01224677126 0.0003188299574)
(-0.03592590707 0.01030165571 -0.0008201975128)
(-0.02926880444 0.01892687935 -0.001560099725)
(-0.02910038016 0.03677923806 -0.002144834475)
(-0.01530645599 0.04218162935 -0.002606311363)
(-0.01223468255 0.0520884691 -0.001197223102)
(0.0008576806907 0.04900818226 -0.001264040259)
(-0.001634729428 0.04869741159 0.00152693839)
(0.006297411613 0.03677614413 0.0007772422695)
(-2.18281438e-05 0.02689677632 0.003199819613)
(0.006708320839 0.008352173378 0.002116136372)
(0.005822865606 -0.007185007913 0.003384722163)
(0.01954086346 -0.02745572091 0.002420170207)
(0.02504574372 -0.04149439848 0.00220969647)
(0.03620312751 -0.05520793152 0.001416461344)
(0.03532540078 -0.05985837013 -0.000222528151)
(0.03100201679 -0.06157721764 -0.0001986752791)
(0.01503057454 -0.0540861385 -0.002451081217)
(-0.003326088198 -0.04408787227 -0.0008558731469)
(-0.02267384412 -0.02710628261 -0.002455365745)
(-0.03247492031 -0.01042384649 0.00036182358)
(-0.02612468458 0.009385808425 -0.0007727399136)
(-0.02043749907 0.01496437891 -0.001439831278)
(-0.02128290373 0.03155800602 -0.002001272005)
(-0.009978572409 0.03486090321 -0.002436782542)
(-0.009814178075 0.04478787621 -0.001121875459)
(0.0001462915595 0.04135676021 -0.001128025928)
(-0.00546506051 0.04274711735 0.001491120181)
(-0.0004543375985 0.0320636311 0.0009023266428)
(-0.009176471505 0.02546276469 0.003050350951)
(-0.0040193162 0.009676072983 0.002202477942)
(-0.005608732532 -0.001175552252 0.003095612456)
(0.008251678658 -0.0179031095 0.002452701598)
(0.0161876021 -0.02771838781 0.00195304862)
(0.02988749007 -0.03907922961 0.001470226876)
(0.03320940016 -0.04199379278 -0.000308457864)
(0.0324433591 -0.04432991382 -0.0001100774393)
(0.02040340826 -0.03833945927 -0.002437320132)
(0.004857245969 -0.03216040979 -0.000779018638)
(-0.01209488431 -0.01922814487 -0.0024303789)
(-0.02098290839 -0.007828321259 0.0004038262848)
(-0.01854408215 0.008309963127 -0.0007218716599)
(-0.01374221448 0.009889681972 -0.001273999942)
(-0.01503407326 0.02499050236 -0.001772333198)
(-0.005991133716 0.02530643288 -0.002152032716)
(-0.007662696749 0.03528132407 -0.0008342643113)
(-0.0005794093843 0.03115876269 -0.0008693454941)
(-0.008180990574 0.03453320522 0.001755119886)
(-0.005884002634 0.02543113714 0.001105390525)
(-0.01580590976 0.02261574878 0.003328083225)
(-0.01208436016 0.01058654455 0.002298848566)
(-0.01365097515 0.004909982419 0.003357638448)
(0.0007936770322 -0.006899848664 0.002421359438)
(0.01008490476 -0.01204385077 0.002111399386)
(0.02611050042 -0.02033825343 0.001370319669)
(0.03160162455 -0.0216341829 -0.0002499077549)
(0.0336033296 -0.02444674443 -0.0002228458712)
(0.0236549869 -0.0206100346 -0.002407288508)
(0.01019142211 -0.01834950537 -0.0008645146321)
(-0.005303229814 -0.01043734387 -0.002385013978)
(-0.01358779053 -0.004773690382 0.0003569854516)
(-0.01304231558 0.006907921383 -0.0006743159113)
(-0.008807843236 0.004651667313 -0.001172828642)
(-0.01035278212 0.01761160038 -0.001628128739)
(-0.002727703199 0.01511275109 -0.001936015504)
(-0.005696014806 0.02466315662 -0.0007327338777)
(-0.0003694851672 0.02008193188 -0.0007021133313)
(-0.009499435095 0.02535301196 0.001646411941)
(-0.008844353684 0.01817683218 0.001154231248)
(-0.01963090882 0.01949406277 0.003057463974)
(-0.01651362747 0.01133307595 0.002276804982)
(-0.01796907252 0.01155365084 0.002930309862)
(-0.0037326545 0.004372692058 0.002190157003)
(0.006680023211 0.004361387441 0.001493514262)
(0.02309527894 -0.001179220041 0.0009374770049)
(0.03029825917 -0.000558774975 -0.0008246307848)
(0.03318685672 -0.00418122978 -0.000637934618)
(0.02472644429 -0.002373276697 -0.002794931534)
(0.01203639302 -0.004459834801 -0.001125613527)
(-0.002362153703 -0.001427039131 -0.002540669421)
(-0.01047597924 -0.001880448277 0.0003085310493)
(-0.01010586217 0.005837108246 -0.0006297083744)
(-0.006347029774 -0.0004779702224 -0.001009233139)
(-0.007578547214 0.01091544188 -0.001394485497)
(-0.001020745788 0.005240899896 -0.001598173782)
(-0.004168195722 0.01474631055 -0.000410063158)
(-7.555887828e-05 0.009230298825 -0.0003993753906)
(-0.009518142635 0.01647606206 0.0018551445)
(-0.009989168544 0.01089428534 0.001277936107)
(-0.02061355121 0.015945659 0.003209305063)
(-0.01769317717 0.01154771856 0.002286562251)
(-0.01858107711 0.01648542077 0.003008879062)
(-0.004308563679 0.01390813437 0.001952674344)
(0.006141600948 0.0178485837 0.00131891764)
(0.02260956483 0.01509060788 0.0004738204284)
(0.02947467107 0.01686913026 -0.001158875243)
(0.03233431342 0.01279490836 -0.001163158789)
(0.02346410138 0.0125190988 -0.00308187183)
(0.0108311876 0.00714411279 -0.001513281731)
(-0.003374943358 0.005776967525 -0.002625348644)
(-0.01150122906 0.0006201652268 0.0001680190238)
(-0.008957541523 0.004781621789 -0.0005728632103)
(-0.005393061716 -0.004497694353 -0.0009293212417)
(-0.006225445444 0.005224490776 -0.00125058676)
(-3.11784472e-05 -0.002758010582 -0.001364687546)
(-0.002893877442 0.006360157201 -0.0003155235125)
(0.0008671295371 0.0002976012928 -0.0002333854254)
(-0.008314420395 0.008929412502 0.001632185914)
(-0.009182990636 0.004794984877 0.001218293859)
(-0.01916124881 0.013038126 0.002806285961)
(-0.01613243047 0.01154285786 0.002137681001)
(-0.01631856611 0.02063607297 0.002479429508)
(-0.002804226741 0.02105057622 0.001535523783)
(0.007490606587 0.02825779413 0.0005433262345)
(0.0223702501 0.02673287551 -0.0001957128548)
(0.02867116439 0.02935305657 -0.001943591864)
(0.03012287472 0.02416499779 -0.001798264492)
(0.02073631626 0.02260566783 -0.003626029906)
(0.007237047531 0.01456832735 -0.0019255732)
(-0.006891518138 0.01059786491 -0.002845529628)
(-0.0152485826 0.002058661351 6.87879212e-05)
(-0.009599674029 0.004435946934 -0.0005307864156)
(-0.006202707218 -0.00725630448 -0.0007647301776)
(-0.006255953305 0.001943637516 -0.001027373266)
(-0.0002316283603 -0.008127068833 -0.0009947418954)
(-0.00202546567 0.001151712439 -1.24879288e-06)
(0.001761934136 -0.005887699537 8.91399604e-05)
(-0.006331548553 0.003879399478 0.0017746472)
(-0.007060703336 0.0003067013866 0.001313523972)
(-0.01584888968 0.01066384844 0.002853696349)
(-0.01232489813 0.01101812943 0.002108208208)
(-0.01188977102 0.02239038409 0.002443821673)
(0.001030861206 0.02466892467 0.001237647272)
(0.01012333154 0.03314966133 0.0002761053805)
(0.02334989155 0.03232169736 -0.0007245930994)
(0.02765680715 0.03475839676 -0.002302386242)
(0.02757871947 0.02894105463 -0.002309450193)
(0.01668634636 0.02630879759 -0.003842143873)
(0.002318301415 0.01717955194 -0.002281676136)
(-0.01214797372 0.01208805648 -0.002863324714)
(-0.02069274597 0.002555578413 -8.835267574e-05)
(-0.01065434844 0.004331749621 -0.0004388730304)
(-0.00730602473 -0.008209757435 -0.0007279794729)
(-0.006755304547 0.0007357335282 -0.0008678864928)
(-0.00060245864 -0.01021377908 -0.000786135778)
(-0.00132680248 -0.0009807846593 9.061499766e-05)
(0.002809545972 -0.008662602715 0.0002076052892)
(-0.003929593952 0.001526189409 0.001510389026)
(-0.004366235849 -0.001964133022 0.001190079586)
(-0.01160058137 0.009582731239 0.002403440123)
(-0.00785163136 0.01046300274 0.001864115475)
(-0.006701079158 0.02296680204 0.001888079394)
(0.00474704111 0.02522259059 0.0008082910695)
(0.0128575302 0.03394290512 -0.000386628802)
(0.02347917467 0.03226962467 -0.001272904158)
(0.02627785415 0.03428081293 -0.002868933445)
(0.02417241338 0.02739015402 -0.002740990427)
(0.01243447473 0.02462982384 -0.004162498917)
(-0.002827527543 0.01514885862 -0.002526752015)
(-0.01715880158 0.0109064766 -0.002950629607)
(-0.02583746624 0.001887800943 -0.0001555751286)
(-0.01205551839 0.004953883465 -0.0004000259203)
(-0.008877864657 -0.007863804551 -0.0005469936882)
(-0.007599994327 0.00207687377 -0.0006535361779)
(-0.001459265182 -0.009495415854 -0.0004283818735)
(-0.0009420267599 0.0002767794071 0.0003514819369)
(0.003542197176 -0.008432771196 0.0005049876877)
(-0.001592391289 0.001862328787 0.001591469736)
(-0.001348038403 -0.002413752582 0.001286073041)
(-0.007076517061 0.009224119188 0.002369729495)
(-0.002876145145 0.009473610654 0.001807622047)
(-0.001483788172 0.02132494432 0.001820359619)
(0.008735970844 0.02243925088 0.0006294073967)
(0.01506101409 0.0296978605 -0.0004623544947)
(0.02356439395 0.02664398181 -0.001488451738)
(0.02420556265 0.02735264274 -0.002833113442)
(0.02078469462 0.01984298418 -0.002856796111)
(0.008053180811 0.01709761444 -0.003974569938)
(-0.007381990408 0.008833989545 -0.002588396286)
(-0.02144116752 0.006648904617 -0.002732585662)
(-0.029974601 0.0003493133571 -0.0002724575894)
(-0.01243080891 0.00575781969 -0.0002950480923)
(-0.009465091742 -0.006049713408 -0.0004815724132)
(-0.007844405403 0.005168601056 -0.0004558700735)
(-0.001895456357 -0.006040927547 -0.00028497144)
(-0.0005874107744 0.004140285043 0.0004286684222)
(0.003937020531 -0.005245526565 0.0005224794298)
(0.0003309482069 0.00458266693 0.001343639798)
(0.000857605978 -0.000938994648 0.001095024279)
(-0.003206882053 0.009951223092 0.001913597155)
(0.0006887406126 0.008518775233 0.001480344279)
(0.002446624588 0.01885105475 0.001321307205)
(0.01061727244 0.01759751956 0.0003160474746)
(0.01579491205 0.02289677852 -0.0008108655612)
(0.02180958542 0.01754496977 -0.001650964112)
(0.02147365347 0.01689834228 -0.002923124859)
(0.01694873667 0.008382555908 -0.002820183593)
(0.004675199084 0.006192210566 -0.003824498554)
(-0.01020712972 -0.0003836860265 -0.002465867152)
(-0.02305993685 0.0007281590724 -0.00256444091)
(-0.03103304617 -0.001948863681 -0.0002608315069)
(-0.01198381583 0.006974144941 -0.0002637449839)
(-0.009419096861 -0.003562887409 -0.0002638722358)
(-0.007532280957 0.009555542638 -0.0002878285927)
(-0.002203918473 -0.00120176165 8.088109481e-06)
(-0.0003852560221 0.009601642263 0.0005261389143)
(0.003858822927 -0.000587002338 0.0006946786811)
(0.00145395302 0.008548249603 0.001275947676)
(0.002466697608 0.001477822625 0.001124009109)
(-0.0003911466109 0.01100902262 0.001743045781)
(0.003402072285 0.007419148779 0.001375384108)
(0.004915448098 0.01536524535 0.001230985551)
(0.01156634336 0.01137832605 0.0003136295531)
(0.01500765265 0.0140960446 -0.0005860551055)
(0.01932202461 0.006354677078 -0.001418057218)
(0.01773594716 0.004039266629 -0.002360259337)
(0.01323780581 -0.005105638041 -0.002421609913)
(0.001878175598 -0.006745809966 -0.003108789576)
(-0.01123937651 -0.01090909616 -0.002138096436)
(-0.02243669908 -0.006213905028 -0.00205363987)
(-0.02937437953 -0.004422291279 -0.000294216873)
(-0.009758079747 0.008031698485 -0.000129456681)
(-0.007761384597 -0.0006951156125 -0.0002240762226)
(-0.006116104981 0.01398749351 -0.0001174885982)
(-0.001871110771 0.00412455935 2.79362957e-06)
(-0.0001550601938 0.0152338949 0.0004711160122)
(0.003194159789 0.004540777699 0.0004937686236)
(0.001790217993 0.01279457279 0.0009425969776)
(0.002613448678 0.004318617804 0.0007754390052)
(0.001000980614 0.01232898095 0.001206608694)
(0.003757960363 0.006496514319 0.0009276045696)
(0.005229049261 0.01201028133 0.0007532918438)
(0.009711810484 0.005169307432 9.490910927e-05)
(0.01224273279 0.005506132652 -0.0006585852655)
(0.0147040742 -0.00447107917 -0.001205910218)
(0.01338277871 -0.008073261675 -0.001991731305)
(0.009338672945 -0.01780453784 -0.001931541849)
(0.0005892286128 -0.01873556409 -0.002505127384)
(-0.009833075236 -0.02082642425 -0.001657073403)
(-0.01835927641 -0.01262655035 -0.001646135242)
(-0.02377751568 -0.006827791847 -0.0001961392689)
(-0.006600570614 0.009028667274 -0.0001214509017)
(-0.005386671515 0.001462354052 -3.812968591e-05)
(-0.004151888093 0.01760002369 -7.219596388e-05)
(-0.001398842772 0.00813181809 0.0001473025631)
(-0.0001305555152 0.01966880291 0.0003241382712)
(0.002132802324 0.008399371463 0.0004665097437)
(0.001328190423 0.01618459789 0.0006569013287)
(0.002214040798 0.006666197073 0.0006502743015)
(0.001228822254 0.01347687139 0.0008673575882)
(0.003221319302 0.005999114129 0.0007300556439)
(0.003977031694 0.009599272336 0.0006144206927)
(0.006946200876 0.0006041145146 0.0001806536653)
(0.008160065616 -0.001018136968 -0.000258303158)
(0.009694045187 -0.01266547436 -0.0006695360093)
(0.00830430053 -0.01744068951 -0.001068956735)
(0.005720033577 -0.0274972278 -0.001155494302)
(-0.0002120715961 -0.0280430265 -0.00140790661)
(-0.006870903521 -0.02838005726 -0.001025617178)
(-0.01238902656 -0.01754585692 -0.0009231336416)
(-0.01582804558 -0.00856786877 -0.0001650907954)
(-0.002156963608 0.009616235747 1.388357638e-05)
(-0.001674122794 0.002948799253 -7.492148302e-05)
(-0.001241767497 0.02004847032 2.095668323e-05)
(-0.0002930900902 0.01108019853 -3.24859254e-05)
(0.0001040227569 0.02286334241 0.0001254196133)
(0.0007483020746 0.01134615825 5.002241328e-05)
(0.0004956315627 0.01877037751 0.0001942300696)
(0.0006022589848 0.008518551036 0.0001030325213)
(0.0004283104833 0.01438510186 0.0002212124317)
(0.0009486552386 0.005773598817 0.0001320430822)
(0.001405475764 0.008241856538 9.031516304e-05)
(0.002266279701 -0.001875328641 -6.205904571e-05)
(0.002946082464 -0.00462404195 -0.0002445456484)
(0.003175427154 -0.01733809433 -0.0003272544363)
(0.00293596373 -0.02255301265 -0.000526788178)
(0.001826794548 -0.03310942184 -0.0004658075467)
(-0.0001082847132 -0.0332660023 -0.00062274291)
(-0.002527779139 -0.03291995252 -0.0003712934433)
(-0.004361334212 -0.02038908525 -0.0004053643593)
(-0.005521242299 -0.009637382232 -2.305196801e-05)
(-0.09360131079 0.001530668825 -0.007197139993)
(-0.07903120115 0.003614227939 -0.001692630403)
(-0.07084719176 0.006096203013 -0.01290042322)
(-0.03997801394 0.007339383277 -0.005112318004)
(-0.02044557127 0.008535476911 -0.01180856439)
(0.01171181761 0.008184201223 -0.002666780694)
(0.02472158866 0.007904941042 -0.006105336214)
(0.04928800974 0.005888214538 0.001174087305)
(0.05555101517 0.004069350196 -0.000706381238)
(0.07246060507 0.0007068180346 0.003434739538)
(0.07538656033 -0.002308018856 0.001176820264)
(0.08366714741 -0.006093535502 0.001306856483)
(0.07782553497 -0.008839856371 -0.002134370322)
(0.06862863238 -0.01152325169 -0.004991758665)
(0.04549514 -0.01257515376 -0.007664329956)
(0.01521171633 -0.01277455646 -0.0106335093)
(-0.02234211226 -0.01127059858 -0.01033182905)
(-0.05896700514 -0.009032792354 -0.01081906422)
(-0.08982066656 -0.005691469802 -0.005864582056)
(-0.1060173482 -0.002119667901 -0.00404415552)
(-0.08993023837 0.004418548541 -0.007219326677)
(-0.07583331405 0.01041110542 -0.001561798235)
(-0.06822142164 0.01750768987 -0.01284555699)
(-0.03825024966 0.02120787482 -0.00492043145)
(-0.01983544987 0.02440384097 -0.01167501882)
(0.01127111175 0.02368445758 -0.00245440554)
(0.02310826912 0.02223921831 -0.005877300349)
(0.04659301466 0.01697573487 0.001304822742)
(0.051904539 0.01088545815 -0.0003202454259)
(0.06797465413 0.001939649802 0.003609534512)
(0.07057685129 -0.007645882222 0.001851134724)
(0.07904888448 -0.01770554331 0.001718024282)
(0.07398674928 -0.02625123012 -0.001284150184)
(0.0659891937 -0.03331031152 -0.004339276886)
(0.04460546713 -0.03663231607 -0.006798835547)
(0.01611836386 -0.03687478464 -0.009969424987)
(-0.01970671306 -0.03267147327 -0.009679683557)
(-0.05501795564 -0.02611348986 -0.01039099365)
(-0.08488741989 -0.0164477589 -0.005537486652)
(-0.1005320329 -0.006126241034 -0.003955608298)
(-0.08299654741 0.006983915213 -0.007162758116)
(-0.06982426273 0.01615113882 -0.001417092743)
(-0.06321900848 0.02748168418 -0.01268995074)
(-0.03512044847 0.03308556152 -0.004691127719)
(-0.01868124511 0.03840697165 -0.01155238844)
(0.01019697352 0.03703367661 -0.002172068911)
(0.02000671422 0.0352734338 -0.005981980154)
(0.04127808832 0.02669247821 0.00149229818)
(0.04495340028 0.01775248995 -0.0008610288454)
(0.05942456186 0.003348644213 0.003866668075)
(0.06151552614 -0.0108543431 0.001172355497)
(0.07054975748 -0.02699754728 0.002344131101)
(0.06681813343 -0.03980899695 -0.001119708813)
(0.06129386542 -0.05106990535 -0.003261492114)
(0.04296115624 -0.05593403361 -0.005950750869)
(0.01799336731 -0.05655461033 -0.008819135999)
(-0.01473606613 -0.05007355638 -0.008765441138)
(-0.04750322336 -0.040082789 -0.009615848986)
(-0.07561101171 -0.0251935562 -0.005054352908)
(-0.09020386278 -0.009383123625 -0.003761933824)
(-0.0734132098 0.008925337498 -0.007186491507)
(-0.0614286604 0.02021697494 -0.001063277715)
(-0.05625614704 0.03477694728 -0.01249709342)
(-0.03055189654 0.04177047455 -0.00424129905)
(-0.01702324574 0.048626187 -0.01123745729)
(0.009065477384 0.04693076929 -0.00172052223)
(0.01583184321 0.04464550284 -0.005364427215)
(0.03422762153 0.03397483446 0.001833983459)
(0.03544742037 0.02248929064 0.000305035584)
(0.04784067611 0.004666112761 0.004327812421)
(0.04916579958 -0.01330901209 0.00309471319)
(0.05862944107 -0.03311951506 0.003312347701)
(0.05701542508 -0.04923201904 0.001087457162)
(0.05461472513 -0.06289079217 -0.00171929066)
(0.04071829357 -0.06889715039 -0.003828167514)
(0.02024156547 -0.06963466289 -0.007250652569)
(-0.008067217063 -0.0617259213 -0.007126171773)
(-0.03743605656 -0.04944821236 -0.008564283621)
(-0.06305452451 -0.03098564444 -0.004279508424)
(-0.07629248089 -0.0115772479 -0.003543066077)
(-0.06222588326 0.01023636119 -0.00705237463)
(-0.05165717761 0.02217716833 -0.0008245343626)
(-0.04800108636 0.03910101014 -0.01221586104)
(-0.02536585638 0.04647872489 -0.003951454397)
(-0.01501003986 0.05478945754 -0.01117902208)
(0.007390166299 0.0525588847 -0.001431551201)
(0.01088611386 0.0505561668 -0.005690524164)
(0.02564213498 0.03839037473 0.00210722928)
(0.02428537002 0.02618928475 -0.0007630261576)
(0.03420906859 0.006156624174 0.004673457899)
(0.03486088134 -0.01293514577 0.001508443106)
(0.0452077745 -0.03513838923 0.004102023905)
(0.04582082417 -0.05230527479 0.0009224648791)
(0.0474204769 -0.06739254856 -0.0002993501051)
(0.03818778165 -0.07360461823 -0.002840783091)
(0.02304678169 -0.07469325015 -0.005702893145)
(-0.000457956967 -0.0661583949 -0.00591883084)
(-0.02576334268 -0.05311784093 -0.007481682674)
(-0.04866616215 -0.0332058964 -0.003646902004)
(-0.06033982157 -0.01241736457 -0.003263199783)
(-0.05034757212 0.01067013247 -0.007013644335)
(-0.04113949971 0.02194500611 -0.0003711006792)
(-0.03910465545 0.03982562706 -0.01185576668)
(-0.01950777432 0.04685156252 -0.003440315836)
(-0.01271225798 0.05595424652 -0.01074335982)
(0.006080157861 0.05343813752 -0.001016124307)
(0.005857741998 0.05190490695 -0.004768651633)
(0.01702901392 0.03951892703 0.002502721641)
(0.01270886258 0.02762278667 0.001027401878)
(0.02026477142 0.007590196403 0.005082115281)
(0.02003309211 -0.01101427143 0.004238149004)
(0.03085122204 -0.03297013815 0.004933507005)
(0.0342608386 -0.04950206134 0.00350707152)
(0.0395833361 -0.0642989988 0.001092540745)
(0.03555330565 -0.06999829905 -0.0006539679867)
(0.02549756587 -0.07139335017 -0.004258654247)
(0.007205227758 -0.06301326227 -0.004345050717)
(-0.01411635239 -0.05088644618 -0.006496018558)
(-0.03408613343 -0.03154555903 -0.002921574558)
(-0.04426161932 -0.01195796789 -0.003035537626)
(-0.03903591158 0.01050330329 -0.006788684602)
(-0.03116675339 0.01950772806 -0.000149737908)
(-0.03042564997 0.03746520486 -0.01146191519)
(-0.0140160123 0.04296656748 -0.003182353764)
(-0.01035282523 0.05270032926 -0.01071864252)
(0.004537872492 0.04966257915 -0.0008630998408)
(0.001085923736 0.04928064583 -0.005252967893)
(0.008505458995 0.03743276903 0.002686822969)
(0.001758248028 0.02742332136 -0.0003474035625)
(0.00696330038 0.008867911053 0.005224354203)
(0.00623783427 -0.006900126719 0.001796455788)
(0.01805148337 -0.0269840563 0.005239211084)
(0.02370960044 -0.04098760746 0.002530580768)
(0.03294681075 -0.05444357018 0.00181563139)
(0.03316979619 -0.05899775263 -0.0004477146952)
(0.02798544413 -0.06072799598 -0.003414853688)
(0.01407080806 -0.05324873325 -0.003793176259)
(-0.003481446813 -0.04346348005 -0.005868108377)
(-0.0209469219 -0.02663429346 -0.002587489644)
(-0.02979600128 -0.01024868982 -0.002829899099)
(-0.02900070907 0.009584146026 -0.006634620508)
(-0.02220503587 0.01552975562 0.0002427188135)
(-0.02254200992 0.03227176633 -0.01090007458)
(-0.008783704986 0.03574105889 -0.002662480714)
(-0.007985062055 0.04546326209 -0.01004552445)
(0.003674228378 0.0420726237 -0.0005010060981)
(-0.002763451954 0.04314706486 -0.004202072569)
(0.001608352649 0.03265963989 0.00296275748)
(-0.00744872732 0.02571273934 0.001556812888)
(-0.003953482592 0.0100215849 0.005366551031)
(-0.005268717575 -0.001212251112 0.004587999362)
(0.006796021184 -0.0179186429 0.005340510335)
(0.01487673484 -0.02792915295 0.004309575668)
(0.02686224797 -0.03920259443 0.002091559738)
(0.03110878106 -0.04206916782 0.000555499831)
(0.02956402412 -0.04439766447 -0.003107579409)
(0.01943967707 -0.03825637651 -0.003286563484)
(0.004732413437 -0.03217160223 -0.005614824242)
(-0.01041837387 -0.0190702689 -0.002383261544)
(-0.01839154066 -0.007826240019 -0.002718469423)
(-0.02112803942 0.008506274763 -0.006314648848)
(-0.01526085216 0.01041793193 0.0003612260259)
(-0.01614092169 0.02570431567 -0.01037835786)
(-0.004729776736 0.02627310397 -0.00238095568)
(-0.005886203569 0.03599706907 -0.009791728773)
(0.00291144301 0.03192270804 -0.0003535969729)
(-0.005549919081 0.03478898836 -0.004577286754)
(-0.003786595683 0.02587996956 0.003020991394)
(-0.01421630226 0.02263673335 0.0005088009854)
(-0.01203709189 0.01072128383 0.005246912655)
(-0.01348585906 0.004612164299 0.002800010018)
(-0.0008163869463 -0.007417488928 0.004970348099)
(0.008681952555 -0.01293868545 0.002774807175)
(0.02295233249 -0.02138663596 0.001547312243)
(0.0294898305 -0.02263837638 -0.0004654606669)
(0.03068759524 -0.02546851373 -0.003591877083)
(0.02273785801 -0.02129070552 -0.003863998998)
(0.01010171107 -0.01901023381 -0.005884435924)
(-0.00357617972 -0.01063409535 -0.002603637261)
(-0.01098832199 -0.004947036281 -0.00271147508)
(-0.01543133114 0.007090342728 -0.006014365885)
(-0.0101853016 0.005172988382 0.0006286214122)
(-0.01131523509 0.0183327897 -0.00957014389)
(-0.00153531813 0.0161797527 -0.001798772209)
(-0.00400384784 0.02545095937 -0.008717852583)
(0.002832460654 0.02093746841 8.962114372e-05)
(-0.007020963075 0.02551123794 -0.003468136715)
(-0.006953269826 0.0184823663 0.003226309776)
(-0.01813435111 0.0192747777 0.001883743699)
(-0.01667297988 0.01130678217 0.005169286283)
(-0.01808332552 0.01089982672 0.004244044172)
(-0.005613828202 0.003465833793 0.004314621511)
(0.005007729157 0.002838850616 0.002984348952)
(0.0199983041 -0.002915962726 0.0004608978583)
(0.02821279985 -0.002307248711 -0.001135302034)
(0.03052458517 -0.005986453254 -0.004646336307)
(0.02402414469 -0.003659712695 -0.004682970664)
(0.01226872024 -0.005703146228 -0.006520236128)
(-0.0003494532876 -0.001878276727 -0.003076672845)
(-0.007591729941 -0.002237426598 -0.002754322484)
(-0.01222788482 0.006036683575 -0.005612588575)
(-0.007454067532 8.930317444e-07 0.000640176629)
(-0.008322053603 0.01163484021 -0.008923826776)
(0.0002865188981 0.006342691138 -0.001477696614)
(-0.00253668018 0.01553574273 -0.008169035986)
(0.002969059751 0.01009878335 0.0002882793195)
(-0.007272909082 0.01643087044 -0.003593348483)
(-0.00816558266 0.01100730905 0.003093048195)
(-0.01926612248 0.01547783966 0.001115010439)
(-0.01794576878 0.01128491337 0.004819490907)
(-0.01902612398 0.01563496014 0.002810183785)
(-0.006542219924 0.01265244201 0.003380852126)
(0.004161928379 0.0160354065 0.001026905298)
(0.01929929088 0.01291176596 -0.00107143381)
(0.02730532801 0.01472970316 -0.00310064596)
(0.02973842162 0.01057241844 -0.006239763649)
(0.02294893007 0.01092702534 -0.006195555996)