/*--------------------------------*- C++ -*----------------------------------*\
| =========                 |                                                 |
| \\      /  F ield         | OpenFOAM: The Open Source CFD Toolbox           |
|  \\    /   O peration     | Version:  5.x                                   |
|   \\  /    A nd           | Web:      www.OpenFOAM.org                      |
|    \\/     M anipulation  |                                                 |
\*---------------------------------------------------------------------------*/
FoamFile
{
    version     2.0;
    format      ascii;
    class       volScalarField;
    location    "8.4";
    object      p;
}
// * * * * * * * * * * * * * * * * * * * * * * * * * * * * * * * * * * * * * //

dimensions      [1 -1 -2 0 0 0 0];

internalField   nonuniform List<scalar> 
30538
(
101297.0801
101283.9078
101259.1192
101244.5351
101250.9551
101253.7051
101252.7099
101259.215
101273.4813
101286.0268
101291.7257
101299.872
101314.8691
101328.8489
101335.1825
101338.9042
101335.2631
101325.5554
101311.2961
101298.5764
101293.928
101279.3452
101261.4695
101250.2186
101251.8961
101252.0641
101251.5781
101258.042
101269.8707
101282.9725
101293.2432
101304.0311
101315.2215
101324.5118
101330.9854
101337.4605
101336.0456
101327.44
101312.8276
101301.1575
101290.1383
101274.1694
101264.3137
101256.1728
101251.2235
101248.1079
101250.0448
101257.9327
101268.1905
101281.2969
101294.7004
101306.8713
101313.5459
101318.7928
101327.4424
101337.5427
101338.3609
101330.7035
101315.7348
101304.3273
101287.5256
101270.6439
101267.1127
101260.0068
101247.6039
101242.1449
101248.4734
101259.2237
101269.3744
101281.8923
101295.3402
101305.8829
101308.5914
101313.3786
101327.1764
101341.1671
101342.5162
101334.0914
101318.3653
101306.6678
101287.0968
101269.0875
101267.4246
101259.7271
101244.0074
101238.0356
101248.1125
101260.5738
101271.2762
101282.8387
101293.6941
101300.3465
101301.9236
101310.7019
101329.7809
101345.9864
101346.5118
101336.5258
101320.0177
101307.5213
101288.6011
101269.995
101264.8472
101255.3825
101242.2408
101238.2334
101248.5043
101259.9237
101270.4311
101281.419
101289.2803
101293.2752
101297.2292
101311.4493
101332.5216
101347.8909
101347.5847
101337.4583
101320.9838
101307.248
101291.2416
101272.4545
101260.7172
101249.2961
101242.9568
101242.2781
101249.159
101256.7359
101266.0777
101276.7643
101283.7407
101288.6931
101297.4652
101314.8003
101333.1412
101344.8617
101345.0252
101337.1651
101322.4181
101307.3701
101293.9232
101275.9627
101256.6112
101244.0455
101245.08
101247.8306
101249.6342
101252.3185
101259.5352
101270.1336
101278.4426
101288.0072
101301.6205
101318.6062
101330.7553
101338.1204
101339.4929
101335.9806
101324.0513
101308.3604
101294.5121
101277.3466
101254.3227
101241.7854
101247.1409
101252.1931
101250.4786
101249.14
101254.2786
101264.6556
101275.7892
101289.6738
101305.707
101319.7858
101327.0259
101332.0987
101334.8427
101334.3051
101324.9901
101308.6956
101292.8777
101276.2492
101255.0335
101244.1372
101248.2085
101253.2466
101250.9566
101248.4361
101252.2033
101262.5394
101275.8386
101291.0688
101305.7103
101316.8531
101323.6484
101330.4416
101333.4643
101332.4391
101323.4548
101307.744
101290.9291
101274.7915
101259.3258
101250.0317
101248.5754
101251.0153
101250.4215
101249.8335
101253.8489
101263.6068
101277.5524
101290.8221
101301.3584
101311.5878
101322.3275
101332.7886
101335.0526
101330.2389
101319.1561
101305.7378
101290.2315
101275.3451
101265.2394
101256.76
101248.6756
101246.8613
101249.1516
101252.6696
101257.5959
101266.2259
101278.0619
101289.1499
101296.9025
101307.9324
101321.9731
101334.232
101334.6726
101326.9132
101314.3894
101303.6438
101291.5658
101278.4466
101270.0839
101261.0744
101249.6877
101244.1996
101249.2015
101256.793
101262.3692
101268.1118
101276.5114
101286.492
101296.4229
101308.2393
101321.1843
101330.5436
101329.4412
101322.1703
101311.7392
101303.0695
101293.8364
101282.2194
101272.6175
101262.8569
101252.5202
101246.1862
101251.8673
101261.8602
101266.5965
101268.8416
101273.026
101284.0862
101298.7832
101311.5258
101319.0048
101321.5928
101319.693
101316.4229
101311.087
101304.439
101295.5476
101284.8029
101273.6719
101264.0528
101257.8368
101253.8872
101257.7504
101265.3271
101268.6976
101269.1264
101271.4742
101283.6538
101301.9567
101313.8192
101315.4534
101312.0211
101309.5439
101310.7181
101310.1888
101305.5142
101295.8198
101285.9431
101275.3387
101267.5832
101265.2121
101264.9803
101264.9564
101266.1175
101268.8517
101272.0611
101275.692
101286.7912
101301.7553
101311.3867
101311.1783
101306.8324
101303.9377
101305.6676
101306.5744
101304.2558
101295.3614
101286.8714
101279.4729
101274.3072
101273.8419
101275.5038
101271.7408
101265.7488
101269.117
101278.2674
101285.7235
101292.568
101298.8621
101304.297
101307.399
101306.715
101303.9199
101301.5412
101300.2191
101300.0487
101295.2077
101289.0656
101285.8282
101283.5812
101282.6176
101284.9532
101277.6893
101268.4891
101272.0295
101285.0969
101297.2009
101300.2616
101295.6522
101297.6098
101303.9765
101308.0179
101306.029
101299.1529
101293.8309
101295.9387
101296.4147
101292.5877
101292.4207
101292.2058
101291.2504
101292.4539
101284.5843
101276.0118
101279.3705
101292.065
101303.6099
101305.8328
101296.2309
101293.3348
101300.7927
101307.0546
101305.6821
101298.6865
101293.0728
101294.3608
101298.6687
101297.7947
101297.715
101297.1547
101298.131
101296.7006
101293.9167
101292.1567
101291.4734
101299.0244
101303.4154
101301.9257
101298.7134
101296.1985
101298.8978
101304.4913
101302.7391
101298.9917
101296.8625
101296.9137
101294.1778
101279.1009
101268.117
101257.1444
101253.7229
101253.9793
101259.8424
101267.6021
101277.1384
101288.7836
101298.2339
101306.2018
101315.6113
101327.8884
101333.907
101333.0524
101329.2355
101327.0647
101321.8474
101309.886
101294.0087
101278.9966
101266.2098
101256.2207
101255.6369
101256.0943
101260.042
101266.5878
101274.6777
101285.5642
101296.4596
101307.2999
101317.2262
101326.7547
101332.3331
101334.2522
101331.6472
101327.9654
101320.0756
101308.186
101293.9482
101279.759
101265.6749
101256.4125
101256.4829
101256.1067
101258.8918
101265.309
101273.109
101283.3239
101294.8423
101307.9635
101317.5387
101324.2606
101330.816
101337.4886
101336.4609
101329.8412
101317.3964
101305.3568
101293.5731
101279.8539
101267.5288
101257.901
101255.1687
101253.33
101256.3419
101263.6846
101272.4843
101282.9332
101294.4541
101307.2389
101315.0953
101320.4932
101330.1577
101342.1869
101342.4997
101331.9955
101314.8087
101302.5562
101291.7579
101277.2542
101268.2188
101258.4923
101252.519
101250.4761
101254.3585
101261.7868
101272.0515
101283.6272
101294.4683
101304.5678
101310.3555
101317.4857
101330.9276
101346.2108
101346.7128
101333.593
101313.5815
101300.8216
101289.0724
101272.9706
101266.5981
101257.1859
101249.9472
101249.0972
101253.3507
101259.4824
101270.1616
101283.181
101293.3335
101300.6112
101306.1315
101316.7942
101332.1494
101346.6804
101346.5283
101333.983
101314.4538
101301.1895
101288.5452
101271.0062
101264.1766
101254.7708
101249.444
101250.0288
101253.1077
101256.7508
101266.9228
101280.6331
101290.5315
101296.7303
101304.475
101318.6271
101332.8434
101342.8875
101342.0968
101333.2506
101317.743
101303.904
101290.6405
101272.7982
101262.0616
101252.0756
101250.5164
101251.658
101252.6045
101254.4329
101263.3745
101276.507
101285.9146
101293.6096
101305.1419
101321.6504
101332.6821
101336.968
101335.6502
101332.4974
101322.071
101307.635
101293.3288
101276.1804
101260.7583
101249.873
101250.605
101251.8598
101251.8403
101253.8049
101261.4306
101272.154
101281.2505
101291.9353
101306.6776
101322.9942
101331.2083
101332.2264
101331.492
101332.2828
101325.5937
101310.5638
101294.5006
101278.3404
101260.552
101249.4211
101249.4939
101250.3409
101251.2851
101254.9357
101261.1985
101268.9117
101278.3349
101291.6681
101307.0917
101321.0859
101328.0355
101330.3888
101331.0054
101332.2861
101326.1555
101311.1291
101293.7368
101278.4766
101262.3848
101251.9702
101249.585
101248.7825
101250.8896
101256.1975
101261.3276
101267.0422
101277.5944
101292.2642
101306.1319
101316.7415
101323.9346
101330.3336
101332.3965
101330.9316
101323.0815
101309.3211
101292.3664
101278.3118
101266.058
101257.0261
101252.0402
101248.814
101250.67
101256.7902
101261.3908
101266.8772
101277.6675
101292.3598
101304.3523
101313.2145
101320.8289
101329.7708
101331.7874
101327.5366
101317.3058
101306.0803
101292.3637
101279.6398
101270.1757
101261.9685
101255.809
101250.814
101251.6741
101257.3029
101263.1056
101268.7471
101277.985
101290.9343
101302.7722
101311.8246
101319.5837
101327.5605
101327.8603
101321.8073
101311.5148
101303.05
101293.7256
101282.5106
101273.6297
101264.9665
101258.8361
101254.4587
101254.9433
101259.872
101266.5697
101272.5695
101278.0897
101288.3081
101300.9732
101312.4457
101319.8595
101323.9181
101321.4827
101315.7004
101306.7757
101301.2013
101295.3504
101285.4089
101276.0551
101266.226
101261.0983
101259.3162
101261.173
101264.4035
101270.3969
101275.9389
101278.7015
101286.4102
101299.56
101312.4032
101319.3579
101319.2707
101315.3366
101311.0498
101304.7782
101300.8771
101296.3439
101287.6063
101278.4033
101268.9366
101264.4154
101265.8253
101268.7933
101269.7126
101272.704
101277.5473
101281.2098
101288.4959
101298.8509
101309.6838
101315.3495
101314.374
101311.2778
101308.7766
101304.4941
101301.6923
101296.5249
101289.2105
101282.0897
101274.7264
101271.2025
101273.6548
101275.7389
101273.5537
101273.6677
101277.7996
101285.7476
101294.5145
101300.0362
101304.4405
101307.7381
101309.0522
101309.2942
101308.3933
101305.602
101302.5657
101296.5807
101291.2755
101287.2197
101283.7223
101281.0555
101282.3827
101281.5072
101278.2515
101275.7295
101278.8859
101291.1617
101301.8559
101302.5838
101300.5641
101300.0139
101304.0993
101307.7547
101308.19
101306.3605
101303.1357
101297.6241
101293.9754
101292.4391
101292.415
101291.3951
101290.5256
101287.5592
101284.5698
101281.7973
101283.0366
101295.211
101306.763
101304.7768
101298.2678
101296.1673
101299.9813
101304.7547
101306.5875
101306.1379
101302.7043
101299.4054
101297.9268
101296.8717
101297.9537
101299.1713
101296.7652
101294.9999
101294.0553
101292.7635
101294.9278
101298.2969
101303.482
101303.5797
101298.1862
101296.3512
101300.0614
101301.2755
101302.6553
101303.1595
101300.5043
101288.8038
101273.7509
101280.8064
101277.818
101261.9792
101257.5835
101270.4245
101280.1416
101284.2483
101292.495
101306.4748
101315.2385
101317.6678
101324.5481
101332.1531
101330.8937
101326.9333
101327.5544
101325.489
101314.8002
101293.0564
101279.4789
101274.254
101267.9276
101262.4867
101262.6736
101272.0861
101279.184
101283.9138
101291.721
101302.7196
101312.413
101319.9156
101328.5454
101334.1642
101333.2063
101329.2191
101327.5867
101322.8952
101311.4035
101298.3617
101287.8227
101269.2336
101258.9216
101263.7797
101267.364
101271.557
101275.9163
101282.9773
101290.8907
101298.592
101309.5014
101322.4948
101331.8489
101335.517
101336.647
101333.757
101328.4131
101319.0262
101306.411
101301.7791
101292.9939
101268.2937
101255.8081
101265.6654
101269.9224
101268.1206
101270.6066
101280.4277
101289.4201
101295.8395
101308.2678
101323.6223
101331.6329
101334.5528
101340.0222
101339.2781
101330.0993
101315.2145
101301.8896
101299.6069
101289.5519
101269.3223
101257.1571
101264.8003
101269.3447
101265.1444
101265.8444
101276.8182
101287.6413
101296.1009
101309.244
101322.6984
101328.5433
101332.9378
101342.191
101342.8604
101331.286
101313.2489
101299.1467
101292.4789
101279.8917
101269.5464
101260.1778
101261.3898
101266.0011
101263.6357
101262.8838
101272.6521
101285.7912
101298.0345
101310.8854
101319.6122
101325.168
101331.9907
101341.9863
101342.1284
101331.055
101313.5567
101299.3969
101286.9162
101271.2993
101269.2772
101262.8306
101258.801
101262.0028
101262.9629
101261.4019
101269.5936
101284.2836
101299.7094
101309.7444
101315.8573
101323.3475
101332.8714
101339.9546
101337.7832
101329.3975
101315.457
101302.4544
101286.1439
101268.898
101269.1553
101264.1486
101257.5202
101257.6357
101261.2438
101261.2539
101268.049
101283.3041
101297.9674
101305.0395
101310.6477
101323.6908
101335.1641
101337.8921
101333.0004
101328.0407
101318.4584
101306.4373
101290.2651
101273.9677
101269.7282
101262.909
101255.4039
101252.7765
101257.917
101262.1749
101270.4853
101282.3318
101292.8788
101298.6101
101307.6967
101324.7028
101336.9785
101335.9733
101330.4075
101328.3689
101322.3184
101309.6905
101295.8251
101281.8502
101269.9319
101259.5223
101252.0156
101248.5431
101254.1893
101264.0319
101273.3488
101280.2174
101286.306
101294.6277
101307.8724
101325.1185
101334.8665
101333.1092
101329.7281
101329.5687
101324.5444
101311.2978
101298.3751
101286.063
101269.1154
101256.7356
101252.2481
101248.649
101253.0641
101264.7464
101273.6037
101276.2096
101281.5068
101294.332
101311.4329
101324.03
101328.3193
101328.5452
101329.287
101329.5378
101324.2095
101310.9757
101296.8446
101285.0084
101268.3302
101257.6579
101256.9494
101254.0525
101254.5127
101262.9504
101269.5211
101272.6141
101279.6905
101295.941
101314.0527
101322.0944
101321.7468
101324.1534
101327.4043
101327.3372
101320.487
101308.6037
101293.9599
101281.5242
101269.7942
101262.1486
101264.1137
101261.7684
101257.043
101258.8631
101265.6102
101273.088
101282.4118
101296.8741
101312.0772
101318.6569
101319.2881
101323.107
101325.3735
101322.2863
101313.9476
101304.2824
101292.2735
101280.4127
101273.4699
101267.6683
101267.3338
101266.704
101260.835
101257.268
101265.7499
101279.1471
101288.1823
101296.0683
101304.827
101313.9503
101321.2451
101326.1974
101324.5512
101317.3622
101306.2663
101299.6136
101292.9671
101283.1617
101278.592
101271.2344
101266.089
101267.6057
101266.773
101262.2681
101270.8404
101285.0976
101292.9359
101294.5244
101297.3108
101309.1938
101323.4806
101328.689
101324.3532
101314.2978
101301.8661
101296.7623
101295.7044
101288.6372
101283.1671
101274.252
101264.8692
101267.5146
101273.3592
101273.8765
101277.6687
101285.7105
101292.4854
101294.6314
101295.908
101306.5387
101319.6253
101324.6859
101321.9465
101314.0008
101303.5321
101298.5919
101298.4705
101293.407
101286.2956
101277.755
101270.2258
101270.7664
101278.797
101284.8538
101283.3508
101280.8145
101286.961
101296.9509
101302.2276
101305.9201
101309.7053
101313.4941
101316.0544
101315.2667
101310.267
101303.8845
101299.9449
101296.2948
101288.2781
101282.8855
101280.916
101278.5169
101283.1728
101292.1246
101287.0066
101276.4834
101281.4621
101299.1114
101310.769
101307.2346
101299.4917
101301.1108
101308.4867
101315.2414
101317.0701
101309.2662
101300.3433
101297.5686
101291.1375
101289.4696
101292.6101
101287.8028
101288.4609
101296.6219
101291.2739
101278.522
101282.0946
101300.6903
101313.9718
101308.4137
101295.5735
101293.2278
101302.1139
101311.7278
101317.1633
101310.3096
101300.1311
101298.6573
101295.0685
101297.5786
101300.2147
101296.3722
101295.1013
101297.3079
101296.8642
101291.1702
101290.8512
101301.6059
101308.2259
101303.119
101296.5045
101294.9448
101298.5823
101304.9856
101308.3438
101304.5673
101286.8065
101274.1559
101292.2576
101294.969
101278.5889
101270.3043
101280.9441
101292.3773
101294.3473
101297.2416
101310.9875
101320.0561
101319.4709
101322.7072
101329.3093
101330.2873
101328.1137
101327.2392
101321.0082
101310.5262
101292.8257
101283.0581
101285.3838
101280.7889
101273.9212
101273.3085
101283.9502
101291.2455
101295.0367
101300.8929
101309.5205
101315.7486
101319.7115
101327.7245
101334.3046
101334.3648
101329.9087
101326.344
101318.7357
101307.9713
101300.3142
101292.631
101278.2308
101267.3501
101272.4426
101278.9763
101284.9709
101286.7479
101294.3873
101302.7674
101306.5428
101310.7655
101322.4172
101334.2377
101338.65
101337.7342
101332.0062
101325.1798
101315.5066
101304.4852
101305.4047
101298.0707
101273.2911
101260.2845
101276.4861
101286.1274
101281.9946
101279.4996
101291.0932
101300.7516
101301.8689
101308.8733
101328.2703
101339.3746
101338.6821
101337.4762
101332.7224
101324.8435
101313.6428
101302.1915
101304.8076
101296.3665
101273.5156
101261.6079
101277.4854
101286.6925
101279.0903
101275.0106
101285.5494
101294.782
101298.937
101312.5005
101333.1388
101339.289
101335.2369
101334.4165
101332.1303
101325.7698
101315.3479
101302.2018
101299.3022
101288.8531
101276.096
101267.6579
101273.4348
101279.9747
101277.5283
101274.359
101279.931
101288.115
101300.0877
101319.3834
101333.6325
101334.6922
101331.6405
101331.6529
101330.8747
101327.2845
101319.111
101304.9263
101291.4704
101277.9072
101277.0956
101273.2569
101268.5147
101270.2556
101276.9347
101275.9932
101275.1966
101283.8355
101303.6852
101323.3611
101329.3218
101328.8311
101331.1624
101332.7369
101330.7685
101328.3128
101322.1677
101308.1266
101284.8158
101269.3682
101276.5433
101276.6107
101263.9311
101260.8575
101275.5815
101277.4449
101272.9424
101283.0884
101305.9687
101321.2975
101319.9374
101323.2087
101334.6313
101338.1239
101332.6352
101328.3165
101322.1009
101308.7666
101287.09
101272.1292
101278.5246
101276.4717
101260.0801
101254.2913
101270.5772
101276.9224
101276.1542
101285.9779
101304.0658
101311.6986
101311.4364
101320.9353
101337.6489
101343.4504
101335.3064
101326.6572
101318.6038
101306.7589
101295.4002
101284.5962
101281.4122
101271.4464
101257.1154
101251.2502
101263.5418
101275.3047
101281.6766
101289.0173
101297.336
101303.3912
101311.0397
101323.484
101337.2722
101342.3064
101335.4326
101324.5672
101313.8473
101304.7598
101301.8963
101293.8762
101279.4368
101264.081
101257.69
101254.1127
101260.3815
101273.0195
101283.6794
101286.7715
101289.407
101299.9174
101317.0426
101328.4004
101332.2388
101333.207
101330.5042
101323.0116
101313.198
101304.8121
101301.8268
101292.8245
101273.1956
101259.7009
101262.2423
101262.0532
101263.4457
101269.8776
101279.0434
101282.245
101285.6047
101300.3443
101321.6293
101330.4772
101325.6948
101322.909
101323.6204
101322.649
101316.1513
101306.9713
101296.1061
101282.9656
101270.1525
101262.4942
101269.6403
101271.5922
101268.211
101264.5557
101270.1098
101280.1593
101289.4851
101303.1025
101318.5261
101325.7224
101322.3323
101319.012
101320.338
101322.1114
101318.3627
101307.964
101290.1275
101274.7607
101272.8159
101271.6162
101272.6842
101274.6308
101271.3988
101260.2896
101263.9549
101283.7141
101300.2547
101306.0133
101308.0721
101315.4373
101322.7863
101324.2262
101322.8148
101321.379
101316.0088
101304.9274
101289.2388
101276.4105
101280.6815
101280.5755
101270.8338
101271.5967
101272.8991
101262.712
101267.5772
101290.3165
101309.8192
101306.6983
101296.7032
101305.407
101323.6062
101331.7795
101327.766
101319.7639
101309.0683
101299.7429
101294.1604
101287.884
101288.622
101284.8099
101269.7611
101267.9313
101274.1675
101275.137
101280.3081
101293.3875
101306.7327
101304.0183
101295.0743
101303.1133
101319.7775
101330.229
101327.5793
101317.5758
101305.157
101298.0522
101300.3658
101298.2632
101291.3411
101283.3031
101275.0001
101270.5284
101276.1026
101290.1356
101295.567
101290.364
101291.1136
101297.8976
101303.7208
101308.5328
101312.8847
101317.931
101319.2619
101315.1917
101307.7559
101301.6211
101303.6021
101302.1623
101288.1685
101278.5313
101284.8068
101279.9888
101280.512
101299.9429
101305.7647
101287.2623
101274.9993
101289.0242
101312.356
101315.9132
101306.5538
101303.6792
101307.5583
101312.5778
101314.1338
101307.2263
101302.7821
101301.4026
101288.2071
101278.8499
101293.7287
101291.2157
101288.0238
101303.5768
101307.2884
101287.4439
101271.8123
101284.2358
101312.8967
101319.6182
101305.0566
101295.0307
101299.5903
101308.1743
101315.1123
101309.9602
101299.7248
101299.7721
101293.5257
101292.9213
101299.5641
101297.0537
101295.3681
101299.9584
101302.2651
101292.5119
101286.1611
101295.1232
101306.177
101309.0877
101302.4247
101294.727
101296.577
101303.235
101307.3266
101305.1042
101293.8975
101288.1048
101294.2982
101298.0891
101298.8598
101295.2788
101290.0836
101299.1825
101311.8482
101311.3627
101309.7038
101317.1548
101326.7318
101327.5445
101324.5322
101325.2381
101326.9155
101325.9107
101316.6314
101303.8812
101297.6924
101294.7973
101296.6486
101293.9571
101288.7044
101288.962
101296.6478
101302.46
101307.1426
101310.9382
101314.4385
101317.926
101322.6153
101327.6988
101331.5479
101333.4512
101330.6872
101324.4184
101313.9942
101302.8904
101299.3041
101294.7194
101293.4589
101287.3856
101283.4369
101288.9555
101302.3284
101302.2145
101301.9072
101310.7468
101318.2928
101316.152
101319.026
101330.3313
101339.1626
101339.42
101331.4024
101321.2004
101310.9216
101301.8477
101298.4679
101289.9527
101284.9371
101280.0555
101285.7775
101296.0974
101302.852
101297.3075
101296.5437
101308.3399
101318.7611
101315.1597
101320.4111
101333.8983
101342.1061
101338.4329
101327.3497
101317.2382
101310.0758
101302.3532
101298.5694
101290.5349
101282.7855
101278.9315
101286.9774
101295.3348
101298.5593
101294.8012
101294.9357
101301.1494
101312.8596
101318.5081
101328.3206
101337.3355
101339.0143
101331.7541
101322.9427
101317.6746
101314.2634
101305.3385
101301.2784
101296.8936
101286.7936
101281.9115
101283.8933
101284.5762
101291.1392
101296.6106
101296.317
101291.4418
101302.6079
101324.5929
101338.3506
101339.4712
101333.1123
101325.5387
101322.335
101322.152
101321.5185
101310.5321
101300.6324
101294.6751
101287.1591
101283.8006
101278.2275
101271.3527
101288.0599
101300.5915
101296.4949
101282.5682
101296.3928
101331.1376
101344.2414
101336.6587
101328.9794
101326.2938
101327.4628
101327.5854
101326.343
101313.5569
101292.9555
101284.9549
101282.934
101283.9012
101272.361
101261.5555
101287.5941
101302.9103
101292.03
101279.1582
101298.8985
101330.1359
101338.9241
101328.6533
101327.3282
101333.8189
101336.1908
101330.7363
101324.4058
101310.939
101289.5073
101279.5901
101282.52
101282.4817
101269.8784
101259.2671
101283.9646
101298.7632
101289.8707
101282.8416
101302.4984
101322.9642
101328.0004
101320.7369
101329.7715
101343.8317
101343.5134
101328.6311
101315.7067
101303.7366
101293.101
101284.5145
101286.3844
101278.9075
101270.0488
101262.6993
101276.3387
101289.0094
101290.3745
101291.412
101301.4459
101317.089
101321.5572
101321.1246
101333.1763
101347.0871
101342.8267
101322.8759
101304.5227
101296.8313
101297.733
101292.2098
101285.8388
101272.7539
101271.0153
101267.5442
101271.2735
101281.0602
101290.9073
101295.9255
101299.6687
101312.0687
101321.415
101327.7382
101335.0921
101340.2344
101333.7609
101317.4458
101301.4868
101295.7356
101300.8741
101294.1347
101279.7628
101268.143
101270.3709
101270.3733
101272.8871
101278.9551
101289.217
101294.4491
101297.7685
101309.8523
101321.6371
101331.1189
101333.121
101329.2036
101322.3138
101316.2156
101308.0849
101301.9262
101297.565
101286.3986
101275.993
101269.778
101268.8782
101270.9866
101281.0942
101280.7271
101282.5464
101287.6422
101298.9685
101312.0857
101319.9563
101327.5039
101329.0887
101321.8862
101316.9553
101318.9432
101318.3745
101309.7814
101292.3481
101276.8187
101276.7114
101278.8695
101269.706
101268.6584
101283.8871
101280.9381
101273.5984
101281.8334
101304.4934
101316.2626
101315.5191
101318.2766
101323.3605
101321.6177
101319.1351
101322.3936
101324.7696
101312.4111
101291.8513
101276.8933
101281.3767
101289.8287
101273.8068
101266.8408
101278.9051
101280.2228
101274.0041
101283.9002
101310.7599
101317.1365
101308.9736
101308.7267
101318.2803
101325.5909
101324.9778
101322.4745
101321.1845
101308.2044
101296.1557
101289.7851
101289.0253
101293.014
101280.0733
101269.3729
101272.3053
101280.4066
101284.8202
101293.1081
101308.77
101310.1931
101305.2616
101306.8882
101315.7621
101325.7007
101325.1897
101318.4268
101312.413
101302.6316
101300.6859
101300.4518
101293.3173
101287.9005
101285.3409
101278.6531
101273.347
101283.2301
101298.8548
101303.1936
101299.8051
101296.9592
101304.0885
101313.1288
101317.9884
101320.1935
101317.4106
101311.2671
101305.6824
101299.9097
101301.7819
101302.1821
101291.2208
101276.6289
101288.37
101291.3379
101281.7945
101288.0143
101308.0025
101309.8518
101291.1207
101283.7202
101300.7619
101318.8598
101320.2202
101311.9841
101306.3574
101304.9321
101303.1913
101300.9044
101298.6149
101300.3201
101292.6166
101272.7649
101287.4826
101301.8052
101295.8272
101293.5552
101306.8752
101311.02
101290.0714
101278.1787
101296.5235
101318.2827
101319.9279
101306.5143
101300.0069
101301.0396
101303.1635
101302.824
101295.0505
101299.5096
101298.122
101288.767
101293.2776
101301.1501
101300.962
101296.4924
101300.9984
101301.5855
101295.5954
101291.2412
101295.9555
101309.1947
101310.2284
101301.3223
101297.4
101299.0879
101301.0574
101302.3724
101299.5025
101301.5107
101294.7596
101298.4666
101314.6753
101319.2475
101302.6632
101302.0086
101326.3083
101330.7991
101312.5444
101308.7859
101330.5144
101336.3928
101328.6377
101327.474
101324.1234
101317.4771
101310.3393
101298.3998
101303.4311
101309.1541
101310.2899
101307.5009
101303.4338
101302.009
101314.4624
101320.5279
101317.4952
101313.7708
101318.6641
101327.8516
101326.99
101322.8979
101323.8526
101329.567
101328.0698
101320.187
101311.4249
101300.3696
101300.7257
101302.5058
101312.3417
101310.0405
101297.0299
101294.6112
101326.6751
101330.8427
101307.6839
101302.7368
101324.1195
101335.0344
101320.5763
101315.001
101324.0235
101331.8424
101328.5884
101320.5256
101312.381
101302.8847
101293.6494
101284.7863
101300.2447
101302.2605
101296.6714
101300.7203
101328.6318
101325.2222
101301.4626
101304.0636
101326.4182
101326.7396
101317.5914
101320.7433
101330.5876
101332.4669
101324.7731
101317.7604
101312.7922
101305.67
101293.6088
101283.351
101293.4947
101295.735
101298.2528
101300.7027
101314.1689
101316.6934
101308.0295
101309.4796
101321.3067
101317.4595
101322.2735
101332.1975
101336.4153
101329.3478
101320.84
101316.6984
101314.7047
101308.5402
101302.0434
101301.1322
101296.3285
101291.9111
101300.0032
101291.5461
101291.383
101312.3988
101323.5713
101312.2987
101302.2959
101311.4525
101331.3897
101342.615
101338.5503
101324.9825
101320.7314
101318.9577
101317.4469
101311.4951
101307.8448
101314.5131
101296.3478
101286.7152
101297.8624
101283.9812
101275.8973
101312.6094
101339.0368
101308.5317
101286.2165
101310.0216
101339.1975
101348.6351
101336.932
101323.5431
101326.3237
101323.5659
101319.0748
101311.9025
101303.7749
101310.8446
101290.9416
101280.5785
101292.9731
101281.1328
101271.5233
101308.979
101342.8067
101301.2072
101280.7318
101308.1812
101339.3233
101347.7266
101332.4254
101325.3384
101333.9494
101327.5072
101317.5048
101308.7446
101296.4168
101295.7715
101283.898
101276.7247
101291.8232
101285.8013
101272.1581
101296.321
101329.0714
101310.4996
101298.2022
101309.592
101332.1023
101337.6395
101329.9323
101329.3876
101338.7996
101327.5973
101312.1641
101301.8387
101291.9152
101280.632
101279.8167
101275.3784
101294.0764
101293.556
101271.7813
101279.3673
101309.7594
101321.5776
101303.542
101309.9073
101322.6044
101331.3505
101331.654
101333.2282
101337.385
101323.769
101304.2902
101294.9533
101290.9801
101277.999
101280.372
101275.8738
101294.666
101295.307
101272.0237
101267.781
101295.4161
101321.0443
101314.1388
101303.8004
101317.0606
101331.8007
101335.6092
101334.7797
101331.7935
101318.6639
101301.0992
101293.0821
101295.8439
101286.2187
101283.2273
101277.5119
101287.2319
101286.7461
101272.7617
101270.8708
101295.4139
101317.0286
101310.2492
101301.7558
101317.7902
101333.3337
101336.0307
101332.5349
101325.9938
101317.2845
101305.5946
101298.6244
101300.0823
101295.1507
101286.1068
101279.5039
101273.3405
101271.6051
101276.8264
101290.7164
101304.6719
101303.4116
101299.229
101308.0394
101324.1204
101331.7334
101329.7862
101326.9888
101323.4429
101319.8697
101315.9578
101308.4345
101301.7732
101297.9963
101286.5718
101282.3754
101269.8211
101261.8588
101279.1804
101311.2013
101312.3033
101284.5474
101288.1347
101320.7832
101333.3387
101324.4925
101316.3264
101321.0679
101323.7772
101323.4701
101324.6687
101314.8028
101304.226
101297.2668
101282.7121
101284.6091
101281.4953
101261.2565
101274.3069
101316.8988
101313.1564
101272.8296
101281.386
101326.2476
101337.6059
101317.2518
101305.4999
101317.4628
101325.1055
101322.999
101325.1605
101314.1068
101301.7508
101297.351
101283.4573
101284.3208
101293.0367
101269.8174
101269.7626
101300.6471
101303.4509
101277.54
101287.3388
101320.6984
101328.451
101313.3218
101306.6527
101316.8902
101321.6023
101317.7743
101316.9357
101307.4626
101296.4278
101295.1472
101290.8258
101287.1438
101289.9285
101284.3458
101281.9359
101277.3259
101285.2658
101300.6222
101308.1577
101305.5088
101306.7322
101313.6271
101319.6675
101318.4316
101313.6577
101309.1743
101305.872
101300.0404
101292.2195
101288.5975
101300.4239
101292.7821
101279.8976
101299.1027
101304.2509
101267.5427
101271.4266
101326.2173
101335.1267
101294.1654
101280.82
101311.4806
101332.1436
101320.5591
101305.7067
101301.4413
101295.4461
101295.0648
101289.3301
101287.8751
101308.325
101299.9664
101271.7104
101308.7448
101324.2759
101275.089
101271.7556
101336.645
101346.4291
101289.2106
101268.9839
101305.8282
101332.2201
101320.0016
101302.4125
101298.4118
101292.8155
101294.3606
101291.2922
101295.0149
101308.4111
101296.97
101284.1942
101305.5125
101313.5698
101290.5207
101287.95
101314.3044
101320.5225
101293.4112
101281.092
101302.3657
101316.3675
101309.6946
101300.5286
101298.4531
101295.4662
101298.1293
101300.0846
101304.1896
101305.1293
101312.1338
101318.6234
101324.3767
101338.6015
101318.3182
101309.4881
101338.3118
101341.6393
101314.5023
101312.3605
101333.2757
101342.3723
101337.4722
101321.7114
101305.8173
101301.4559
101296.0904
101305.0402
101317.6541
101319.9323
101319.0074
101318.216
101310.636
101331.4193
101344.5808
101333.0548
101316.5722
101320.2083
101327.8194
101324.2554
101317.5709
101319.9612
101326.2718
101325.1734
101315.2316
101308.3033
101301.0837
101303.683
101316.9891
101322.1706
101319.3251
101317.1525
101306.9512
101324.1867
101354.6988
101345.7
101303.8447
101307.759
101336.6714
101333.5087