/*--------------------------------*- C++ -*----------------------------------*\
| =========                 |                                                 |
| \\      /  F ield         | OpenFOAM: The Open Source CFD Toolbox           |
|  \\    /   O peration     | Version:  5.x                                   |
|   \\  /    A nd           | Web:      www.OpenFOAM.org                      |
|    \\/     M anipulation  |                                                 |
\*---------------------------------------------------------------------------*/
FoamFile
{
    version     2.0;
    format      ascii;
    class       surfaceScalarField;
    location    "8.4";
    object      phi;
}
// * * * * * * * * * * * * * * * * * * * * * * * * * * * * * * * * * * * * * //

dimensions      [1 0 -1 0 0 0 0];

internalField   nonuniform List<scalar> 
91025
(
0.5740566639
0.1316293275
-0.1258387217
0.5191996292
0.1161736008
0.07195734428
0.3889833154
-0.1186570542
0.008394779906
0.200276815
-0.2736572311
0.2173962468
0.2235506916
0.0706366538
0.08235708152
0.2383984474
0.07175367381
0.1699452792
0.0353263693
0.004467201618
0.0725556907
-0.3035541384
-0.1704363606
0.1210331381
-0.568586734
-0.1259270168
0.07003535352
-0.6970959455
-0.1614835063
0.07217829691
-0.682009095
-0.1285177626
0.02710986672
-0.4853165182
0.02430929031
0.02696608247
-0.3419350726
0.1095684644
-0.103948907
-0.4981415276
-0.08372445559
-0.2537014831
-0.6585184628
-0.002528160972
-0.1674998378
-0.1414588227
0.3991247103
0.02347683012
0.6173537341
0.5327957269
0.1393740041
0.949077317
0.07449615467
-0.08206178429
0.4135963975
-0.4440652279
-0.2769441968
-0.4338279035
-0.2272968738
0.6064090907
0.1521462607
-0.1218563502
0.4060543067
0.06092342427
0.07802709281
0.3629684139
-0.08245019571
0.02006786502
0.3027724054
-0.3291190548
0.205601547
0.2813611606
0.04926296389
0.03756313805
0.1875464881
-0.05002865296
0.1327961567
-0.0339593576
-0.1132915364
0.07482096324
-0.331803892
-0.3749988269
0.1361569586
-0.5775378785
-0.2253444003
0.09474563601
-0.6795515613
-0.2129829459
0.1108952177
-0.6196703456
-0.08847894966
0.04174464208
-0.439238335
0.08444143157
0.009740900804
-0.3703902649
0.1226576222
-0.1155869866
-0.4677664676
-0.1705888869
-0.1980445683
-0.5256910286
0.04040927047
-0.118175099
-0.1122227335
0.6712905267
-0.005816756109
0.4369071391
0.89862463
0.07775834701
0.739613375
0.1299861819
-0.08654649068
0.4526944138
-0.6647808342
-0.1938906972
-0.670332398
-0.1588783838
0.6148298191
0.06109364312
-0.1146997697
0.2758003254
-0.2034519064
0.07934957599
0.3069118861
0.01530455757
0.007485273937
0.3833114145
-0.274088383
0.1730933279
0.3026217766
-0.05293267307
0.005908798671
0.1066270176
-0.2926338666
0.1281586122
-0.1004054595
-0.2767028753
0.08218598082
-0.3171389864
-0.5655622338
0.1557938356
-0.5412642049
-0.283130331
0.09374134234
-0.6514137752
-0.1953413184
0.1266640031
-0.5509916162
0.06219109621
0.004757053675
-0.4248478592
0.1417731032
-0.02130112148
-0.4049453663
0.0909366745
-0.1223786772
-0.3812955354
-0.2045109212
-0.1097275269
-0.2848835957
0.1326276543
-0.06918974137
-0.0545517852
0.7005879307
-0.07569518878
0.1515890051
0.9457368088
-0.03797187242
0.4165713077
0.1359406304
-0.09498170172
0.4974122406
-0.5644774423
-0.06357811852
-0.6387367858
-0.05241263783
0.6160790884
-0.07095961329
-0.09037267447
0.27061775
-0.5762681166
0.09255959039
0.2907999066
0.04270415147
-0.02108043903
0.3869139919
-0.2557388192
0.13174113
0.2707866111
-0.1900965226
0.01978554762
0.03695595379
-0.5350876119
0.1672274805
-0.1300337184
-0.3493291932
0.1224845775
-0.257166968
-0.6348231277
0.1805251205
-0.4396557439
-0.2837648848
0.09726257024
-0.5609614916
-0.1890074747
0.1038164122
-0.5122810047
0.1622900976
-0.04167766916
-0.4748951745
0.1298740098
-0.05660657413
-0.4641802253
0.06717942932
-0.08962514163
-0.2651692278
-0.1164244015
-0.01496867544
-0.04070036357
0.2744941608
-0.03337641366
-0.02483794136
0.5135596723
-0.1743395776
-0.1446026644
0.6504312415
-0.1663959012
0.08273084824
0.07619800186
-0.09539874854
0.5294039419
-0.2366751376
0.0667937051
-0.3741425186
0.054022384
0.5170034319
-0.08977248999
-0.0546650598
0.312966241
-0.8062500814
0.1472336989
0.2834382862
0.01153176995
-0.04157205455
0.2979479953
-0.3248103745
0.1148675473
0.1989008321
-0.2395426738
0.04458760742
0.004169572763
-0.6758466873
0.2143920828
-0.127727793
-0.259266999
0.1403599098
-0.18677304
-0.5978895476
0.2105676441
-0.3178040606
-0.231240967
0.05295524558
-0.4671744323
-0.2627355763
0.05963869693
-0.4735448506
0.1480818596
-0.1643247828
-0.5239804672
0.01324249863
-0.06539416398
-0.4764051673
0.1356362574
-0.07415060217
-0.1281855389
0.1015340408
0.04610961317
0.1102362943
0.4479111984
-0.04873828275
-0.01811907005
0.1954973714
-0.2558527122
-0.3182829176
0.2069330986
-0.2444476954
-0.08401490038
-0.01806400005
-0.0796128611
0.5561923056
0.1811557758
0.1657776334
-0.01246013505
0.1263524454
0.4040383756
0.07116207978
-0.01090986792
0.4255967916
-0.7097414645
0.2180870014
0.3449646487
-0.008252792377
-0.02367356857
0.2211451688
-0.4460901939
0.1248948282
0.164909267
-0.1370554018
0.0845570303
0.02506423067
-0.6582069953
0.2397247213
-0.1000332322
-0.1054783346
0.1569830093
-0.13640058
-0.5119432389
0.2232168913
-0.2252309619
-0.1564460803
0.04903689332
-0.3660165605
-0.3852444367
0.005606077249
-0.4504881275
0.02224534933
-0.2165897354
-0.5329870273
-0.1290471673
-0.06128234659
-0.4407532985
0.2602468409
-0.04128677702
-0.08004025556
0.3243582538
0.03600279797
0.0768849741
0.5844792292
-0.07792105561
-0.0949266833
-0.115560942
-0.2735125715
-0.3637364283
-0.1517587258
-0.2223456031
-0.09505590484
-0.05836212512
-0.03863959405
0.5241120882
0.5371959943
0.2033753274
0.2869412603
0.143693939
0.2783652585
0.3235096291
-0.01564917459
0.4482848833
-0.4588311989
0.236248808
0.3549615195
0.02336628231
-0.0124150199
0.1454646985
-0.5982385538
0.1496132751
0.1281864575
0.01479274761
0.07888427877
0.03772803608
-0.6079293
0.226108249
-0.09534617972
0.0160301198
0.1285414377
-0.1385197312
-0.4782839186
0.2345851803
-0.1865723498
-0.0604392674
0.008017138958
-0.3083159636
-0.5251333976
0.002060909552
-0.3766846034
-0.05469291178
-0.3115254417
-0.4421026221
-0.2663280835
-0.03148074473
-0.3224185413
0.4145093318
-0.08839090665
-0.08763756996
0.4084654851
-0.02181177931
-0.07727024138
0.6169391938
-0.131753752
-0.1740533336
-0.2836036106
-0.2126077988
-0.2341247792
-0.2100889391
-0.1230526725
0.07872679265
-0.00358100867
0.005344810264
0.4893666172
0.7391696493
0.1683043593
0.384736306
0.1002532628
0.2630436778
0.5278463148
-0.05283440866
0.4351653569
-0.2489071118
0.1828626279
0.366201555
0.08364358535
0.01196371445
0.1666727033
-0.729519011
0.1775313689
0.1407930841
0.09556681305
0.06877255349
0.06859337837
-0.6047422044
0.1855174479
-0.08545482552
0.04774320117
0.1220849256
-0.1627309415
-0.5084935558
0.2155439639
-0.2048698918
0.01829562685
0.01982439433
-0.2748608016
-0.627330928
-0.007159292593
-0.2967256847
-0.04551068779
-0.2794697181
-0.3019409766
-0.3011608112
-0.03588461963
-0.2139415916
0.5270726145
-0.12876036
-0.1729038873
0.312111599
-0.1216065489
-0.3158998577
0.4797688562
-0.1545143964
-0.2823135958
-0.3334315509
-0.1131418571
-0.07862559628
-0.0461231221
0.0007457502021
0.2540112736
0.07774874972
0.02378699672
0.3906321669
0.7240105728
0.07851213537
0.2929189664
0.01599137697
0.217115046
0.579782834
-0.1003574551
0.27367896
-0.253761931
0.1198654158
0.2655099127
0.1659762232
0.02404266141
0.162777211
-0.7824680013
0.2105801213
0.1334678653
0.1816134708
0.04506766749
0.06245298912
-0.6317863367
0.1596640537
-0.08331033366
0.05181521385
0.09191856508
-0.1885098831
-0.6185311775
0.1973362983
-0.2303935212
0.05972738322
0.01219095796
-0.2456252235
-0.722934125
0.05659718404
-0.1692097325
0.04392392293
-0.2079506458
-0.1331345197
-0.307015763
-0.02384665818
-0.1183900469
0.5740954436
-0.2011067993
-0.244822903
0.04015716917
-0.1827929973
-0.4602098004
0.2253651869
-0.164408285
-0.2773215648
-0.3478224008
-0.02446932911
0.1065976488
0.1968351438
0.08003345709
0.4189087722
0.07825997038
0.002413943281
0.3117879965
0.5185904143
-0.03548154436
0.05790212116
-0.07087509294
0.2609261309
0.5078655108
-0.1049112038
0.1803202428
-0.4161818925
0.08936495822
0.2248418483
0.2656099073
0.05322228678
0.2123891525
-0.6830472306
0.2213803739
0.1621860343
0.3248251517
0.05623539031
0.06541638282
-0.6207624584
0.1521226882
-0.06747370997
0.07905500613
0.09674806533
-0.1906098543
-0.7256529478
0.1652655296
-0.2523692933
0.07113376834
0.0573114756
-0.2043093031
-0.7316992304
0.08774431968
-0.05859052279
0.1376942019
-0.1063743257
-0.0284555092
-0.342007237
-0.06366456944
-0.1378799109
0.467536265
-0.2103787391
-0.3643278532
-0.2726691056
-0.2007637652
-0.5388533619
0.0132917298
-0.1154685727
-0.2407155233
-0.3075394612
0.01854000424
0.1824366833
0.3406701287
0.09658668006
0.4226239689
-0.03537090062
-0.03954718704
0.1990888052
0.2030970123
-0.1142793121
-0.205391882
-0.1213856055
0.2001787191
0.4300694345
-0.0890776541
0.07089589106
-0.6214752586
0.09870598378
0.1551154525
0.4002791673
0.03935776637
0.2069118816
-0.5388374597
0.1883635885
0.1137524612
0.4619731539
0.03432802333
-0.003052405278
-0.6186011108
0.1525759577
-0.09184296582
0.1562348236
0.08111538207
-0.1974274779
-0.7787709468
0.1531457306
-0.2342609722
0.1708868427
0.06604344756
-0.1367119453
-0.6368727125
0.1360496561
0.05302109971
0.2453893759
-0.08578957521
0.03306867313
-0.4821733755
-0.07377784159
-0.1818306298
0.2239906868
-0.2159498966
-0.4278505564
-0.5385913448
-0.1483982936
-0.4564222291
0.02553378416
-0.06478970255
-0.1110143578
-0.1990799938
0.01848731798
0.2305351409
0.4099901597
0.04937751375
0.4076496531
-0.2016174102
-0.06272907976
0.2035292404
-0.08059996583
-0.1205378244
-0.4235812538
-0.1127412509
0.2243392331
0.4328655854
-0.0522999833
0.1324317735
-0.7211160175
0.1038742216
0.2215124831
0.5289956036
0.01428031978
0.2496360623
-0.4751219427
0.1215945207
0.08720611923
0.4602531581
0.02368406746
-0.05342886203
-0.6625127759
0.1514875088
-0.1032976235
0.2547681529
0.111967698
-0.1686589196
-0.7263741369
0.1431770982
-0.2073947114
0.36488075
0.0992904934
-0.1085342941
-0.4334028696
0.1295638432
0.05162239036
0.3594962692
-0.02040646612
-0.001886962239
-0.6514643697
-0.07338822434
-0.2561246498
-0.05906044497
-0.1500794116
-0.4444947058
-0.6930581243
-0.09601025233
-0.3821663855
0.2114796633
-0.0208152563
-0.08644476695
-0.03030718173
-0.01452465514
0.1276765637
0.4576789442
0.00562619019
0.2688417922
-0.3040313761
-0.04979212743
0.2078225242
-0.2098271651
-0.04233342769
-0.5119663109
-0.05435901743
0.1399931043
0.5170296144
-0.04725707879
0.1338622109
-0.7177962878
0.08343251796
0.2019767372
0.6037405345
-0.03395520606
0.1718938632
-0.5867204851
0.06803626088
0.001087362204
0.339833136
-0.01014301882
-0.1242158139
-0.7699501381
0.1407513989
-0.1196748714
0.3815005817
0.09430300885
-0.1185993567
-0.6022797099
0.1161836562
-0.154094879
0.5633887561
0.03650067811
-0.1289543048
-0.2801622126
0.09684236914
-0.01526297089
0.4542161558
-0.009604496989
-0.04255618223
-0.7429790482
-0.02170714936
-0.1954109162
-0.1838438048
-0.1061764673
-0.2886982527
-0.7104472217
-0.06131847086
-0.2270488837
0.4166479091
-0.03544705358
-0.06248688522
0.06680690574
-0.05033331702
0.02851432263
0.5145710124
-0.02532841761
0.188682052
-0.2621054329
-0.007648787145
0.3066164669
-0.0857647079
0.05164848254
-0.4417362432
0.01622972032
0.1905557998
0.6209575951
-0.04885347025
0.2227220582
-0.6587748774
0.05162607706
0.2416454071
0.5999200503
-0.04076072915
0.1516039454
-0.7523951287
0.06321894988
0.02109875823
0.2299567766
0.006899984437
-0.06535775842
-0.8320138004
0.1297668982
-0.04525333781
0.4841801243
0.09126839285
-0.0378784013
-0.5012092268
0.06330540122
-0.1333985151
0.5610562178
-0.0100101871
-0.2208817851
-0.3877961521
0.03196958178
-0.2072243921
0.4486731077
0.05541319589
-0.1539653979
-0.6660450522
0.04408436517
-0.1273884376
-0.03422902335
-0.02762475233
-0.1127975606
-0.6174749274
-0.06579801142
-0.1366282076
0.4284287154
-0.06480576029
-0.1473656108
-0.04552274966
-0.08468180782
-0.153092216
0.4948463326
-0.02349412411
0.03673620923
-0.1012773166
0.02722208359
0.3194707782
0.2532891634
0.1238872982
-0.2272662058
0.05400213319
0.1178453019
0.6989944225
-0.05818865621
0.1487770373
-0.6421801744
0.02871025733
0.1166203263
0.5701778885
-0.04267787587
0.03861668069
-0.8492566271
0.08354958899
0.01840560897
0.2934229158
0.01125480673
0.003306837711
-0.7626669327
0.09346923496
0.004536098267
0.5543713823
0.01423918097
-0.01522115745
-0.5417248971
0.001248081798
-0.1287835512
0.3392746237
-0.07326247199
-0.272128233
-0.750917525
0.001276935468
-0.3038457121
0.3473642471
0.06041547121
-0.1916642843
-0.4400850015
0.08622585774
-0.005760966568
0.3392453392
-0.01643803078
0.07581131287
-0.4416143115
-0.08104088298
-0.01817070719
0.2363366349
-0.1113159903
-0.119602963
-0.3402009689
-0.08764587837
-0.1634842569
0.3800037197
-0.02270290606
0.03112369193
0.08028107697
0.02832054473
0.3389438487
0.6851061498
0.1021766484
0.02828104328
0.04327926168
0.1836488854
0.7141096033
-0.04613041592
0.1712397915
-0.6887980096
0.02874818097
0.1138667233
0.5286661595
-0.01226161007
0.06463755964
-0.8249586605
0.1010462667
0.1086727957
0.4819115708
0.04634661921
0.1044076811
-0.6532550605
0.05373800285
0.0230360798
0.524331606
-0.02232439145
-0.07204066141
-0.689372457
-0.003642311478
-0.174426865
0.06381904989
-0.01054734496
-0.245461606
-1.090140269
0.03119028127
-0.2914068577
0.2239593103
0.08234666465
-0.2208117851
-0.2231385033
0.06589671245
-0.05765986176
0.7313801192
0.002098769313
0.03605178833
-0.261343667
-0.07041743161
-0.03020444769
0.04484105473
-0.08371793524
-0.08976110826
-0.6110952103
-0.05824880295
-0.1050906267
0.2510774774
-0.003718227248
0.02491419569
0.1777292007
-0.007294842332
0.1974396956
0.9543633311
0.03002450927
0.1812813835
-0.008259458607
0.08890319166
0.7027042112
-0.03278499481
0.06037528789
-0.7806509954
0.02985348103
0.02661830064
0.5070981004
-0.0219457386
0.03592861304
-0.7925869129
0.0580293269
0.09379233065
0.63554501
0.01008287648
0.06484615796
-0.6911214286
-0.0187890118
-0.06704597329
0.425095294
-0.08307825944
-0.2055825824
-0.8360939933
0.01779919447
-0.2052169184
0.0008879229167
0.06028078973
-0.08710434513
-1.107187513
0.09391140017
-0.0563685149
0.2049846608
0.02347052256
-0.1266435293
-0.2000315647
-0.02808192925
-0.1397891632
0.8724719099
-0.04820117974
-0.08776811918
-0.1282716131
-0.03702431757
-0.006306909762
0.1283875311
-0.01954347773
0.1033869685
-0.5736825997
-0.0005633497991
0.1655366728
0.2516664538
-0.00369157085
0.180004392
0.1119643684
-0.05896450546
0.08898279111
0.8734334394
-0.07594049427
0.1083237138
-0.06364029065
0.1386925525
0.6935243648
-0.01124636717
0.1094846113
-0.8438657933
0.03555736328
0.1165934934
0.4978843531
-0.02420226822
0.1327439135
-0.8347829689
0.003374250322
0.1136851641
0.5575085224
-0.01048725574
0.03438464902
-0.8627700692
-0.04115613414
-0.1335142183
0.2721819815
-0.05397840839
-0.3053411104
-0.9148475294
0.06363036033
-0.2185851986
0.2146538365
0.1776674804
0.04775500694
-0.7390195904
0.1658128995
0.1378443559
0.3201112389
0.009325973576
-0.04580018997
-0.3656614883
-0.1124028931
-0.2907195713
0.6482028937
-0.07503706942
-0.3168120781
-0.1338856164
-0.005140459523
-0.09938499897
0.4783278376
0.06902758938
0.1730492553
-0.2000524059
0.05277532746
0.3128710352
0.4027034972
0.009024743541
0.2346733058
-0.07260322511
-0.08725102407
-0.09367984496
0.4390560276
-0.1373405016
-0.174623486
-0.09607108519
0.01218292296
0.7002920896
-0.006960216792
0.02255186162
-0.8522810178
0.01958723925
0.06829770351
0.5312593528
-0.03903370667
0.07807451046
-0.9675060907
-0.06026708552
0.02477340983
0.3094194235
-0.0668551519
-0.04930346838
-1.124931391
-0.06845361096
-0.1712733989
0.1293461046
-0.05321461048
-0.3092601939
-0.8917478405
0.06037087989
-0.1882949381
0.5575363932
0.1547537592
0.149061776
-0.1371935795
0.1654438088
0.2904918325
0.5802444771
-0.023643932
0.06686431473
-0.6245760348
-0.1639178132
-0.2349256633
0.2321865373
-0.1150436162
-0.3357437922
-0.2499161727
0.007600459869
-0.09532444342
0.8632411088
0.09034370711
0.2413766863
0.3382443091
0.08577604267
0.4018993378
0.6586222569
0.01368504958
0.2845065623
-0.2762198576
-0.0816762517
-0.08725087475
-0.08468580546
-0.1390313903
-0.5144843012
-0.0857563754
0.0595437574
-0.00733969496
0.06047908037
0.01482209895
0.1192767099
-0.004962905428
0.1064176726
-0.01549571361
0.03242850958
-0.03379028529
-0.03024457895
-0.0155379271
-0.1019458271
0.005184439272
-0.1002615731
0.05072068225
-0.06573036486
0.09128524606
0.04315327741
0.06032685065
0.1462922387
0.01109192419
0.03080830581
-0.06778711378
-0.1748545107
-0.05708460697
-0.196080113
0.02260523301
-0.07376772281
0.06850519802
0.06703384184
0.0314333174
0.1676258736
0.01586615495
0.09922107882
-0.03457275574
-0.1120600992
-0.07311158799
-0.02297888529
0.597529845
0.1915196651
-0.1667208797
0.6789962472
0.182812402
0.2724342321
0.5087392895
-0.1459691177
-0.037332253
0.1698550961
-0.4053049918
0.3253579015
0.1654598816
-0.04991796414
0.2030258275
0.2137109868
0.02771952561
0.4522131359
0.02882453635
0.03347371904
0.2253193817
-0.312288253
-0.118273387
0.2767189404
-0.6062164103
-0.06342027562
0.2079366358
-0.737021805
-0.08299459727
0.1987194418
-0.7849792138
-0.1429383236
0.08750639155
-0.7242220906
-0.06658301754
0.07958604851
-0.5457100104
0.1192432951
-0.02490449444
-0.3576400097
0.1687825274
-0.2214443801
-0.2800398532
0.1786498213
-0.1613941458
-0.02379040751
0.2321108819
-0.01798855234
0.2826238513
0.2491810875
0.142197209
0.5932279424
0.0485547664
-0.1284070782
0.6042832061
-0.08901675988
-0.284892778
-0.1677597751
-0.2918741586
0.6219752591
0.2658962372
-0.1965000966
0.538432335
0.159990381
0.2484978876
0.4334604617
-0.1792769928
0.0279377722
0.2567641803
-0.5391020004
0.3828248112
0.2631634514
-0.03736847312
0.1498757239
0.220985083
-0.004098412144
0.3684811425
-0.006772588015
-0.03071541159
0.2242957769
-0.3197397126
-0.3005539798
0.3000151759
-0.6194653517
-0.1858061358
0.2291423672
-0.7601345394
-0.1816255554
0.2370445278
-0.7630441908
-0.2040187424
0.1235210237
-0.639546359
-0.04906711135
0.07869399874
-0.4959056808
0.2049041501
-0.05737284756
-0.3456742509
0.2371595244
-0.1939436256
-0.2788580411
0.2581659525
-0.1206128517
-0.04567401701
0.3349979689
-0.0552422328
0.2063466429
0.3969609993
0.07102313806
0.5204840529
0.09644022581
-0.1296278799
0.5984791279
-0.09601189329
-0.190643439
-0.2390643618
-0.2039033676
0.6488692807
0.2069640683
-0.2391945689
0.3621077268
-0.06322995319
0.1962887502
0.3393362216
-0.1078850938
0.04068480698
0.3392550042
-0.4622480603
0.4210664761
0.3355300679
-0.00955211204
0.09376982582
0.1778745596
-0.1212581237
0.3241821127
-0.07307592362
-0.13647047
0.2252953318
-0.3250158002
-0.4811748198
0.3313529283
-0.6047013516
-0.3104447351
0.2013179906
-0.7616318425
-0.2856489373
0.2525805487
-0.6956617677
-0.1746591655
0.07354597264
-0.5339690082
0.03157176202
0.05360481962
-0.4212786216
0.2525579464
-0.1162465185
-0.3265060135
0.2104422001
-0.1290040645
-0.2449310534
0.2606180834
-0.08350539234
-0.05197981355
0.287674295
-0.1356215181
0.1144331388
0.4160838043
-0.06339403527
0.4173756274
0.1369770503
-0.1432753969
0.5947295897
0.02493964103
-0.04552035888
-0.1971298972
-0.07177140648
0.6587822165
0.07978666014
-0.2447903339
0.2760814544
-0.3628586413
0.1601669433
0.3162852214
-0.01039908709
0.01407763442
0.424852113
-0.3250240235
0.3958025273
0.3703822031
-0.0542672197
0.09780595429
0.1050487312
-0.3319804033
0.3435453711
-0.1424298235
-0.2316153259
0.2834715328
-0.3174951824
-0.5630745686
0.3707668951
-0.5569784676
-0.3699858791
0.2117960285
-0.7059621466
-0.3565639427
0.2279865183
-0.6074010961
-0.1182381613
0.01676162558
-0.4600363262
0.09579324077
0.005975682919
-0.4056523238
0.2247740429
-0.1055990918
-0.3306581762
0.1339579388
-0.03648566059
-0.2194425713
0.2572335612
-0.03489936997
-0.05989070278
0.1888757253
-0.2386433848
0.02920365095
0.3503410172
-0.2122235043
0.3048590032
0.1621004117
-0.1569204958
0.5621396001
0.2153044274
0.09168941497
-0.06539791645
0.05368657903
0.5867660255
-0.009763289355
-0.2048770535
0.2497170022
-0.6022733422
0.2246180968
0.2983143646
0.05434462006
-0.02815329533
0.4102316115
-0.2628847883
0.3666500717
0.3251803875
-0.1073792362
0.1105196915
0.04028746918
-0.5719320008
0.3788497052
-0.1928496152
-0.2304564143
0.2765934056
-0.3128619698
-0.5513972008
0.4138899862
-0.4961614155
-0.3144561579
0.1420609377
-0.6095193196
-0.3933337698
0.1667612699
-0.4939687289
-0.05336435706
-0.2177797903
-0.4088075251
0.06622806325
-0.02723577963
-0.3937163606
0.1790165877
-0.1285560314
-0.3088054832
0.07424703244
0.0333491052
-0.1820162729
0.3205143544
-0.05561295159
-0.03192385871
0.1167649376
-0.3286902585
0.02288585641
0.2689581798
-0.3045973136
0.2723189848
0.1609684624
-0.1484812348
0.5249413583
0.3699591279
0.1804366305
0.07035489889
0.1343702679
0.5087179014
0.01900905557
-0.09340754644
0.3364400014
-0.7043459094
0.3554999629
0.3538561485
0.08411914259
-0.009277889925
0.3622348184
-0.3082587421
0.3511939483
0.2774102645
-0.1082345932
0.1664989473
0.04264021355
-0.7234542368
0.3974015583
-0.1804722483
-0.1687022003
0.2808838499
-0.3049679589
-0.5000522214
0.4331837638
-0.4472187207
-0.2027803554
0.1522727516
-0.5136359782
-0.4054709435
0.08469057696
-0.4012404886
-0.05114982178
-0.3692355051
-0.3957473502
-0.06005188586
-0.05139892816
-0.4119948717
0.1366960172
-0.08404901406
-0.2989046708
0.06458874167
0.03023129504
-0.1975956181
0.4286541674
-0.08808582492
-0.04611554531
0.1092502146
-0.3423139049
0.03227284814
0.2346943873
-0.2664056039
0.2610432059
0.1203232358
-0.1062122217
0.4417236803
0.4091089609
0.2077871887
0.115661446
0.1451110389
0.3824857104
0.1754233292
-0.05834854476
0.3730954261
-0.6429901272
0.4358173496
0.3602373148
0.1328302374
-0.01415876776
0.2475094912
-0.4403664125
0.351359534
0.1921608974
-0.04013331761
0.1485755693
0.05391592848
-0.7770821149
0.3851592405
-0.1616121925
-0.0882458187
0.2192410958
-0.3065827618
-0.4986494194
0.4477509881
-0.4112954765
-0.06233199337
0.07194480636
-0.4312817406
-0.42809476
0.04788825868
-0.3197071551
-0.00181104991
-0.6597853146
-0.3563825752
-0.2274879404
-0.02734156053
-0.3521763818
0.1684782466
-0.1604571266
-0.2397188511
0.06620063857
-0.02900973225
-0.202735233
0.5219542577
-0.1746721175
-0.05293338094
0.1063878995
-0.2710630084
0.0853593107
0.2722130348
-0.1385739903
0.3181080072
0.05582465268
-0.04772099007
0.3974304597
0.3528849323
0.1551929066
0.05218364532
0.08157520441
0.3517289866
0.3890323962
-0.08745610002
0.4417478554
-0.4698183463
0.3866397844
0.4030912433
0.1902647409
0.005598586262
0.203939593
-0.601922559
0.3558005817
0.1646528906
0.03252260129
0.1334967354
0.1038839008
-0.7528620143
0.3527514535
-0.119326757
-0.04566686766
0.2228118153
-0.2998384264
-0.5565634788
0.4169624801
-0.4151653399
0.08448993326
0.07032908906
-0.4135555177
-0.4626006195
0.004117535121
-0.2808775527
0.1372877885
-0.7860149198
-0.3095703574
-0.3478682647
-0.04771559435
-0.2776737166
0.2932916366
-0.1932482215
-0.1908025091
0.06057441303
-0.1613658797
-0.2440181816
0.4963011834
-0.2235636015
-0.118971471
0.03241399878
-0.1696108142
0.06183076152
0.3094176376
0.01964843557
0.3058963235
-0.004614713812
-0.01996460441
0.3280684931
0.2566290974
0.05539826212
-0.0614169239
-0.02096413537
0.2852883563
0.5706825667
-0.1745808234
0.3755151498
-0.3545087377
0.2839621723
0.3203174235
0.231256826
-0.001486626092
0.1336699019
-0.7645318233
0.3840926867
0.1162557658
0.1395560643
0.09284922441
0.1051306571
-0.6900184243
0.3476416783
-0.08654110699
0.0007585386871
0.1905861433
-0.2687982321
-0.6698130323
0.3798651562
-0.3756380988
0.1555793322
0.02632338422
-0.3758028766
-0.5541377571
0.09273855673
-0.2512119398
0.1895633296
-0.5406772664
-0.2398926259
-0.4062463407
0.01256057738
-0.1737176376
0.4511149635
-0.2795685857
-0.142019252
0.0032232521
-0.2416162957
-0.2376223301
0.3554991692
-0.261711793
-0.1294178595
-0.1428741915
-0.0676902443
0.06856110515
0.2831047297
0.1002740288
0.3145892013
-0.06684761757
-0.03678114049
0.3198676163
0.1907905874
-0.06373849603
-0.1540773733
-0.1145451883
0.3334189493
0.6017815546
-0.2089249983
0.3186585824
-0.4172733869
0.1939240919
0.2813058255
0.2287504193
0.03819448305
0.1620632828
-0.8280868553
0.3982102674
0.1394694174
0.2713469086
0.1283577847
0.1124107467
-0.6129603399
0.3575789422
-0.04558256493
0.08619197423
0.224063407
-0.2238107068
-0.7605430763
0.2971089921
-0.3684154044
0.1366003797
0.07464079835
-0.3748297069
-0.6374650647
0.1317662948
-0.2216554946
0.2236542147
-0.2598400514
-0.1601454105
-0.4145524955
-0.03026468975
-0.1506121977
0.5095597227
-0.2721915363
-0.1950197674
-0.1192370861
-0.280954341
-0.2990934711
0.1858508286
-0.1952169611
-0.1553843926
-0.3054744432
-0.02346887567
0.03541280717
0.2341304833
0.1092969385
0.2480238166
-0.1167069176
-0.08651423352
0.2735777385
0.1914075049
-0.1487390908
-0.1862857768
-0.1731917489
0.273265186
0.5457329589
-0.2128346723
0.1618568187
-0.616470321
0.1800303095
0.1792789408
0.2684655054
0.01998444457
0.1612184282
-0.7805487954
0.3732546877
0.1191821696
0.3827260382
0.09187203441
0.04408872371
-0.5776106888
0.3483701412
-0.07398038604
0.1894909848
0.1851654278
-0.1989777061
-0.8370475982
0.2528022672
-0.3258947207
0.1217955619
0.05515691103
-0.3371259288
-0.652208053
0.2093675882
-0.1304481109
0.3502430805
-0.1735617495
-0.05948858501
-0.4307429663
-0.03872544781
-0.132130521
0.402665045
-0.313018648
-0.2516300854
-0.3346674226
-0.2201747751
-0.2975761687
0.1289532586
-0.1187380936
-0.0865047096
-0.3238658622
-0.01183598193
0.08767988158
0.2453901904
0.04027027604
0.2732233601
-0.1497933539
-0.1194428288
0.2945059522
0.2032083924
-0.152821954
-0.2115816047
-0.1610231389
0.2860022052
0.4773591262
-0.1481678555
0.1586733838
-0.8056129659
0.1912728521
0.2287002466
0.3819622247
0.01754037693
0.26023016
-0.6684834984
0.2953951363
0.1611994567
0.4045840296
0.07232726328
0.003789635628
-0.6310692865
0.3002007666
-0.109526939
0.2439872576
0.2201328049
-0.1816751936
-0.8760084296
0.2410316888
-0.2805347236
0.1508598389
0.1490993598
-0.2851404157
-0.560604084
0.221952818
-0.1116455576
0.5070147499
-0.006966729771
-0.05821356027
-0.4472686492
-0.05655365261
-0.1897640076
0.1596019642
-0.2212586746
-0.3344939659
-0.578532587
-0.1609720956
-0.3231893942
0.1950348552
-0.02893337532
-0.07987672505
-0.1728012495
-0.03728670869
0.08493395506
0.3532168549
-0.006987461184
0.2329054507
-0.1598367626
-0.1032429717
0.2428851391
0.1693793811
-0.0590666091
-0.2594025619
-0.08860511559
0.1568677601
0.5053238489
-0.1222518156
0.1137909107
-0.8475280339
0.1940642543
0.2072665037
0.542693495
-0.03991748063
0.2281929806
-0.6177431592
0.213825019
0.1037862076
0.3521235787
-0.01522407205
-0.09086272702
-0.8089889518
0.2264268982
-0.1817768766
0.2685274399
0.1730393272
-0.1646011956
-0.8462629712
0.2476444434
-0.1851424986
0.2820415818
0.09907339373
-0.2069519742
-0.4527603726
0.1733363441
-0.1178127034
0.641294863
-0.01515757694
-0.09827719301
-0.4696904851
-0.003777410702
-0.1694998176
0.002485123295
-0.1695974737
-0.2431930227
-0.7226488755
-0.1091107784
-0.2123410548
0.291207586
-0.04805519771
-0.02300206659
-0.02255500115
-0.08350496603
0.1044876718
0.4920588318
-0.04812591144
0.2438100781
-0.1510351505
-0.0424478414
0.2798078517
0.1409152219
0.05824415923
-0.314265691
0.009322170228
0.186506755
0.6047121204
-0.09179873438
0.2212113136
-0.7557391023
0.1620388889
0.281856711
0.6468952975
-0.03961988413
0.2209863487
-0.6776141264
0.1812269473
0.1085816134
0.2878687469
0.01009780435
-0.0812370743
-0.9691144859
0.1885290827
-0.1668456111
0.2745697072
0.1766633957
-0.1030125379
-0.6927347855
0.2249006557
-0.0909203639
0.4308861751
0.08598104549
-0.1671830962
-0.4525889487
0.06297831062
-0.2478752382
0.579474112
0.05638188226
-0.259971534
-0.4917191233
0.06895655062
-0.2030284327
0.05700204442
-0.0192351966
-0.1329103931
-0.6665976619
-0.09228736852
-0.1267430537
0.3232588366
-0.09148661109
-0.0649671806
-0.03558978619
-0.1468887659
-0.01384964422
0.5320440649
-0.0439972029
0.12910665
-0.1139992062
0.01384432663
0.2404408601
0.1882890295
0.1727898564
-0.2922938496
0.07227487328
0.1021884045
0.7361786651
-0.09571945038
0.1743370638
-0.6644788525
0.121634553
0.1743736897
0.6448518435
-0.06853250024
0.07489495066
-0.8125668277
0.1809420131
0.02299917782
0.3166623476
0.01838364759
-0.07042535506
-1.001938049
0.1462400552
-0.1156268082
0.3229546255
0.04842847721
-0.04639844073
-0.5319281636
0.1295321777
-0.03063939084
0.5165707782
-0.01889585026
-0.1482640366
-0.6379273796
-0.01354181486
-0.3136207645
0.3277984352
0.01474606359
-0.3383461019
-0.5148275987
0.1134456377
-0.1402613121
0.3503174909
0.02102871699
0.04589068452
-0.4149531822
-0.0857445801
0.04341330184
0.2938989861
-0.1712155995
-0.01548047242
-0.2265293104
-0.1714844058
-0.04350460085
0.4365377252
-0.05877762686
0.09710655784
-0.05294911572
0.02226942516
0.2795430392
0.3819987462
0.1676396898
-0.1693405428
0.07837989696
0.1877029199
0.7991099566
-0.07701697955
0.2195904028
-0.676502291
0.09556408577
0.1743082353
0.5444393059
-0.02738246809
0.06450948464
-0.9567541018
0.1869381333
0.04886360625
0.4075736795
0.1085426523
0.03460913033
-0.9138990319
0.1374652814
0.001050587601
0.3874809006
0.01048711659
-0.03163841828
-0.5025242346
0.05731440137
-0.08996247245
0.460375889
0.03114710842
-0.176692436
-0.860246716
0.02761112524
-0.3295937922
0.06661257721
0.07308989074
-0.3552551817
-0.5372327527
0.0790376728
-0.1794515934
0.651979052
0.05859716762
0.01726824878
-0.1426414244
-0.06174218482
0.03976251838
0.2824475524
-0.1136153104
-0.02220091843
-0.4164911587
-0.1287996339
-0.07667464775
0.3029908306
-0.03896076326
0.02382008557
0.008565991946
-0.02314379879
0.1905075175
0.5945747133
0.07819874649
-0.02517096684
0.01308439195
0.09160834124
0.7920399831
-0.07637364665
0.06854647384
-0.7825398605
0.06944442231
0.04246085384
0.4706714651
-0.04473544962
-0.004239295339
-1.02297872
0.1211224498