/*--------------------------------*- C++ -*----------------------------------*\
| =========                 |                                                 |
| \\      /  F ield         | OpenFOAM: The Open Source CFD Toolbox           |
|  \\    /   O peration     | Version:  5.x                                   |
|   \\  /    A nd           | Web:      www.OpenFOAM.org                      |
|    \\/     M anipulation  |                                                 |
\*---------------------------------------------------------------------------*/
FoamFile
{
    version     2.0;
    format      ascii;
    class       volScalarField;
    location    "8.4";
    object      rho;
}
// * * * * * * * * * * * * * * * * * * * * * * * * * * * * * * * * * * * * * //

dimensions      [1 -3 0 0 0 0 0];

internalField   nonuniform List<scalar> 
30538
(
1.265175879
1.289196922
1.289373436
1.289247136
1.289304376
1.289325072
1.289310962
1.289365279
1.289491155
1.289601926
1.289652478
1.289723967
1.289857475
1.289980163
1.290034317
1.290065962
1.290032271
1.289945359
1.289915766
1.296045504
1.26514528
1.289186327
1.289422448
1.289326139
1.289340295
1.289337529
1.289328192
1.289382501
1.289486741
1.289603118
1.289695726
1.289791323
1.289890667
1.289971195
1.290026777
1.290083305
1.290069504
1.2899923
1.289958374
1.296048482
1.265425439
1.289149267
1.289446864
1.289378056
1.28933197
1.289299458
1.289312693
1.289380618
1.289471228
1.289589085
1.289710765
1.289819477
1.289878312
1.289922839
1.289998412
1.290087669
1.290093506
1.290024271
1.289983509
1.296166136
1.265361077
1.289123716
1.289470028
1.289409851
1.289295811
1.289242572
1.28929642
1.289391267
1.289482079
1.289596109
1.289719171
1.289813918
1.289836847
1.289877922
1.290000506
1.290124873
1.290134599
1.290057595
1.290004328
1.296088221
1.266133144
1.289129017
1.289470382
1.289403819
1.28925975
1.289202171
1.289291082
1.289402464
1.289500265
1.289606672
1.289707262
1.289767432
1.289780434
1.289857707
1.290028351
1.290172633
1.290174289
1.290082147
1.290017281
1.296352924
1.266210065
1.289147633
1.289444516
1.289360934
1.289239974
1.289200744
1.289292384
1.289396499
1.289493652
1.289595793
1.289670289
1.289706669
1.289741376
1.289868372
1.290056443
1.290192967
1.290186642
1.290092507
1.290021714
1.29616108
1.267560016
1.289198116
1.289404734
1.289302212
1.289242866
1.289234523
1.289296638
1.289367566
1.289455452
1.289555577
1.289622753
1.289667746
1.289746146
1.289901188
1.290064337
1.290167196
1.290164921
1.290090843
1.290030854
1.296486423
1.267714028
1.289242452
1.289365224
1.289251482
1.289259145
1.289282601
1.289299788
1.289327703
1.289397302
1.289497254
1.289576642
1.289663117
1.289785092
1.289936561
1.290043308
1.290106188
1.290114877
1.290080144
1.290040394
1.296160705
1.269607581
1.289290426
1.289342842
1.289228683
1.289275799
1.289320715
1.289306917
1.28929934
1.2893508
1.289448791
1.289553397
1.28967849
1.28982194
1.289946422
1.290008399
1.290050416
1.290071619
1.290064003
1.290044467
1.296443526
1.269762008
1.289295709
1.289348152
1.289248719
1.289284432
1.28932969
1.289311291
1.289293503
1.289332637
1.289429991
1.289553411
1.289689862
1.289819933
1.289917175
1.289974961
1.290032783
1.290056835
1.290045151
1.290024596
1.295833432
1.272204596
1.289324321
1.289386963
1.289301925
1.289287706
1.289309694
1.289307024
1.28930664
1.289347579
1.289438996
1.289567143
1.289684784
1.289776613
1.289865044
1.289958626
1.290050138
1.290067856
1.290022435
1.289979112
1.295957204
1.272325194
1.289345764
1.289441216
1.289363723
1.289289344
1.289272856
1.28929623
1.289332483
1.289380873
1.289461088
1.289568756
1.289665488
1.289731151
1.289826461
1.289950256
1.290058755
1.290060821
1.289989549
1.289929115
1.295085341
1.275440095
1.289419243
1.289486719
1.28940438
1.28929983
1.28924985
1.289297338
1.289369587
1.289422993
1.289475695
1.289550852
1.28963642
1.289721293
1.289823566
1.289937827
1.29002093
1.290010078
1.289944219
1.289897289
1.295140118
1.275491895
1.289470238
1.289511396
1.28942237
1.289327032
1.289268976
1.289321908
1.289414952
1.289459738
1.289479462
1.289515097
1.289609752
1.289737445
1.289848217
1.289913426
1.289936079
1.289919091
1.28989054
1.289884083
1.294055586
1.279202171
1.289537274
1.28952253
1.289434847
1.289376755
1.289339854
1.289375566
1.289445723
1.289476981
1.289479286
1.289497297
1.289601777
1.289762101
1.289865293
1.289878153
1.289847157
1.289825774
1.289838421
1.289867448
1.294013111
1.279051324
1.289561789
1.289538558
1.289467893
1.28944458
1.289441148
1.289440962
1.289452048
1.28947657
1.289503571
1.289532679
1.289627614
1.289758068
1.289841696
1.289838432
1.289799882
1.28977516
1.289793428
1.289828477
1.292736543
1.283285473
1.289605183
1.289576171
1.289528975
1.289523102
1.289536777
1.289502232
1.28944782
1.289477452
1.289558165
1.289622034
1.289679209
1.289731719
1.289778047
1.289805294
1.289800298
1.289776629
1.289757712
1.289763565
1.292528386
1.282846073
1.289630438
1.289632828
1.289605868
1.289602111
1.289614628
1.289555446
1.28946634
1.289502767
1.289616778
1.289725991
1.289749088
1.289704642
1.289720122
1.289777389
1.289815528
1.28979873
1.289738826
1.289701592
1.291142376
1.287588865
1.289231978
1.28967667
1.289036973
1.2896639
1.28897803
1.289578821
1.288957631
1.289541319
1.289321688
1.289781847
1.289624312
1.289726963
1.289607332
1.289798248
1.289782185
1.289848639
1.289716326
1.289705657
1.290931324
1.318325589
1.249432461
1.311008024
1.244323563
1.302598921
1.244004278
1.297221
1.248503415
1.295758695
1.256469958
1.297875928
1.266036706
1.301550892
1.274790947
1.304350082
1.28039849
1.304693311
1.281647129
1.302368132
1.279330881
1.260633194
1.289082195
1.289457099
1.289364509
1.28933316
1.289333635
1.289383829
1.289450629
1.289533828
1.289636501
1.289720579
1.289790438
1.289874745
1.289984766
1.290039097
1.290030992
1.289994153
1.289972647
1.290047772
1.297948047
1.260601546
1.289112454
1.289467725
1.289383567
1.289377926
1.289379914
1.289412869
1.289468972
1.289539431
1.289635648
1.289733248
1.289829555
1.289918872
1.290004285
1.29005466
1.290071526
1.290045548
1.290010574
1.290059149
1.297955952
1.260936195
1.289130482
1.2894621
1.289383937
1.289383994
1.289378187
1.289400749
1.28945621
1.289524793
1.289615796
1.289719794
1.289837443
1.289924096
1.289984501
1.290043785
1.29010348
1.290091445
1.290029527
1.290032688
1.298120996
1.260864082
1.289138239
1.289477514
1.289395423
1.289369735
1.289350509
1.289375389
1.28944006
1.289518682
1.289612967
1.289717878
1.289833308
1.289904837
1.289953691
1.290041132
1.29014904
1.290148687
1.290051209
1.29000569
1.29810811
1.261696219
1.289137158
1.289482201
1.289398375
1.289342972
1.289321838
1.289355087
1.28942153
1.289514556
1.289620219
1.289719925
1.289811829
1.289864926
1.289929772
1.290051225
1.290188143
1.290189163
1.290067534
1.289990626
1.2984583
1.261719171
1.289110303
1.289465624
1.289383843
1.289316668
1.289306476
1.289343766
1.28939951
1.289497476
1.289617314
1.28971168
1.289778701
1.289829428
1.289926203
1.290064532
1.290194198
1.290189111
1.290072266
1.289993184
1.298392125
1.263188427
1.289125191
1.289442021
1.289359155
1.289309168
1.289312292
1.289339745
1.289373947
1.289468561
1.289595477
1.28968812
1.289745778
1.289816585
1.289944571
1.290072105
1.290160557
1.290149564
1.290066125
1.290017
1.298795884
1.263369308
1.28915644
1.289421055
1.289332063
1.289316292
1.289324928
1.289333846
1.289352596
1.289436979
1.289559298
1.289647705
1.289718852
1.289823704
1.289972489
1.290070651
1.290106509
1.290090718
1.290059038
1.290050178
1.298521398
1.265521228
1.289229095
1.289407991
1.289309892
1.289315118
1.28932526
1.289326204
1.289347054
1.289420178
1.289520859
1.28960624
1.289704099
1.289837553
1.289984012
1.290056154
1.290062206
1.290051766
1.290056093
1.290075591
1.298791629
1.265789028
1.289267193
1.289405002
1.289304272
1.289303809
1.289310775
1.289321075
1.289357817
1.289418775
1.289492049
1.289579787
1.28970093
1.289839846
1.289964728
1.290025108
1.290043189
1.290045166
1.290054267
1.290075055
1.298135969
1.268612812
1.28931825
1.289421287
1.28932669
1.289304182
1.289296681
1.289318129
1.28937005
1.289420489
1.289475025
1.289572078
1.289704291
1.289828318
1.289922007
1.289984478
1.290039324
1.290054633
1.290039268
1.290038746
1.298153646
1.268871982
1.289336986
1.289454553
1.289372562
1.289326585
1.28929759
1.289317061
1.289376298
1.289421258
1.289472758
1.289570792
1.289702043
1.289808343
1.289885832
1.28995226
1.290030485
1.290045809
1.290005609
1.289978795
1.297097742
1.272479966
1.289403641
1.289492705
1.289417949
1.289361339
1.289316672
1.289327204
1.289381608
1.289436696
1.289488327
1.289571022
1.289685477
1.289789778
1.289868837
1.289936883
1.290006901
1.290007163
1.289951033
1.289915229
1.296945754
1.272701604
1.289450148
1.289524913
1.289446017
1.289389662
1.289350741
1.289357679
1.289405199
1.289467488
1.289521241
1.289569066
1.289657979
1.28976935
1.289870452
1.28993577
1.289970901
1.289946962
1.289893775
1.289863598
1.295616414
1.277016828
1.289529061
1.289547918
1.289458373
1.289411194
1.289395758
1.289414763
1.289446242
1.289501226
1.289549981
1.289571934
1.289637656
1.289753247
1.289867144
1.289928855
1.289927139
1.289890135
1.289851007
1.28983398
1.295337148
1.277041912
1.28956638
1.289569946
1.289483755
1.28944211
1.289455557
1.289484133
1.28949393
1.289520912
1.289562795
1.289592534
1.289654459
1.289744997
1.289841213
1.289891842
1.289882742
1.289853703
1.289831114
1.289823782
1.293810032
1.281980363
1.289623797
1.289603862
1.289536762
1.289504299
1.289526955
1.289547025
1.289527984
1.289528349
1.289563601
1.289632333
1.289708225
1.289755383
1.289793839
1.289823391
1.289835498
1.289837087
1.289829263
1.289823837
1.293412027
1.281643035
1.289649705
1.28965019
1.289610528
1.289593473
1.289596829
1.289598291
1.289562769
1.289545549
1.289569321
1.289680937
1.289774076
1.28977946
1.289759966
1.289755153
1.289792697
1.289825425
1.28982989
1.289825392
1.291780721
1.287165217
1.289192669
1.289674122
1.288953407
1.2896489
1.288867245
1.289587283
1.288966614
1.289556902
1.28921112
1.289710549
1.289632301
1.28981372
1.289665332
1.289775515
1.289736453
1.289856921
1.28979815
1.289827418
1.291370867
1.318955568
1.246794949
1.310071392
1.240484575
1.299991349
1.239765399
1.293820314
1.244767904
1.293091921
1.253929112
1.296847286
1.264781726
1.30219117
1.274552603
1.30628144
1.280546691
1.307090467
1.281481445
1.304406533
1.27841756
1.255162839
1.288945301
1.289565078
1.289544581
1.289402281
1.289362773
1.289478384
1.289563876
1.289597699
1.289669069
1.289793597
1.289871488
1.289895531
1.289960981
1.290032932
1.290022033
1.289981024
1.289981537
1.290126677
1.302799015
1.255158783
1.289028783
1.289533984
1.289482833
1.289434643
1.289436218
1.2895208
1.289582841
1.289622602
1.289690182
1.289788112
1.289874809
1.289945229
1.29002676
1.290080614
1.2900722
1.290031087
1.290011678
1.290129767
1.302836536
1.255529672
1.289117182
1.289488407
1.289400526
1.289445241
1.28947707
1.289514179
1.289551702
1.289613241
1.28968252
1.289751307
1.289849831
1.289970349
1.290058687
1.290094786
1.290104926
1.290073762
1.290020795
1.290090804
1.303183493
1.255454325
1.289170439
1.289479429
1.289371316
1.289460707
1.289498026
1.289480544
1.289501529
1.289588958
1.289669172
1.289727377
1.289840514
1.289982693
1.290058981
1.290087975
1.290137039
1.290125409
1.290037804
1.290048814
1.303246121
1.256316652
1.289166787
1.289488291
1.289382336
1.289451058
1.289490322
1.28945089
1.289456178
1.289554962
1.289653073
1.289730865
1.289851518
1.289976689
1.290033117
1.290074913
1.290157796
1.290159251
1.290049967
1.290023932
1.303885094
1.25632972
1.289091703
1.28948946
1.289408342
1.289418103
1.289457488
1.289434542
1.289427226
1.289516041
1.289636414
1.28974965
1.28986853
1.289950846
1.290004156
1.290067152
1.290156334
1.290153349
1.290048715
1.290016993
1.303850331
1.257874039
1.289052924
1.289486233
1.289430754
1.28939257
1.289418883
1.289426218
1.289412063
1.289487724
1.289623052
1.289766458
1.289859979
1.289918438
1.289988691
1.290075366
1.290137551
1.290113976
1.29003405
1.29002532
1.304483531
1.258088227
1.289047075
1.28948396
1.289440864
1.289378911
1.289377244
1.289408962
1.289409617
1.289473447
1.289614823
1.289756913
1.289818556
1.289872241
1.289992063
1.290095593
1.290117816
1.290069824
1.290021618
1.290042938
1.304139216
1.260502072
1.289144654
1.28948836
1.289427797
1.289357898
1.289331617
1.289377877
1.289417652
1.289495986
1.289606815
1.289706228
1.289761067
1.289845791
1.290000842
1.290111127
1.290098932
1.290045022
1.290023827
1.290069167
1.304418125
1.260915669
1.289233271
1.289489096
1.289395532
1.289325787
1.289292319
1.289343762
1.289434861
1.289522549
1.28958832
1.289646862
1.28972481
1.289846655
1.290003399
1.290090255
1.290070882
1.290036718
1.290033103
1.290082458
1.303504151
1.264223343
1.289334335
1.289481211
1.289369126
1.289327111
1.289293277
1.289334265
1.289442549
1.289525986
1.289552502
1.289603189
1.289721134
1.289877333
1.289991488
1.290028504
1.290026753
1.290029754
1.290030178
1.290069287
1.303290917
1.264569929
1.289344861
1.289473364
1.289376751
1.289369486
1.289343015
1.289348887
1.289428062
1.28949017
1.289520242
1.289586079
1.289734113
1.289898834
1.289971309
1.289966111
1.289983903
1.290009377
1.290006909
1.290027274
1.301833427
1.268890641
1.289383175
1.289486522
1.28941707
1.289434703
1.289414345
1.289373916
1.289392889
1.289455812
1.289524576
1.289609624
1.289740526
1.289878354
1.289937371
1.289941031
1.289971586
1.289987808
1.289957796
1.289955054
1.301233442
1.269137462
1.289391988
1.289519594
1.289466935
1.289464459
1.289460578
1.289410255
1.289380066
1.289457916
1.289579257
1.289660599
1.289731054
1.289810034
1.289892132
1.289956413
1.289997406
1.289977949
1.289910634
1.289875823
1.299341785
1.274381035
1.289484974
1.289566286
1.289499446
1.289453904
1.289470104
1.289465573
1.289426565
1.289504531
1.28963274
1.289702295
1.289715173
1.289739756
1.289847184
1.2899753
1.290019119
1.289975182
1.289881842
1.289821384
1.29848173
1.274395565
1.289551132
1.289608055
1.289527387
1.289443733
1.289470369
1.289526149
1.289532257
1.289566375
1.289637571
1.289697029
1.289714735
1.289725737
1.289822216
1.289940024
1.289983129
1.289953871
1.289879655
1.289827043
1.296404669
1.280457805
1.289650682
1.289637242
1.289559966
1.289493275
1.289500459
1.28957563
1.289631414
1.289617094
1.289592156
1.289645856
1.28973486
1.289782279
1.289816097
1.289850029
1.289882305
1.289901793
1.289892679
1.289874149
1.295437464
1.279991243
1.289682143
1.289656098
1.289596542
1.289590606
1.289558798
1.28961436
1.289688168
1.289648876
1.289548656
1.289595142
1.289753087
1.289859335
1.289827729
1.28975739
1.289771105
1.28983483
1.289894873
1.289927922
1.293281665
1.286731851
1.289068508
1.289650784
1.288717051
1.289655948
1.288654367
1.28959336
1.288972461
1.289644963
1.289155582
1.289595057
1.289608224
1.289904711
1.289808635
1.28978276
1.289736554
1.289842231
1.289886134
1.289936066
1.292293283
1.322654098
1.24060782
1.311804407
1.233061096
1.29959335
1.232723291
1.292095749
1.239907588
1.291400639
1.252236392
1.296072936
1.266408177
1.302577886
1.278864815
1.307345694
1.286263862
1.307647682
1.286763148
1.303308406
1.282240264
1.240925786
1.288606607
1.289660588
1.289695065
1.28954818
1.289473027
1.2895684
1.28966925
1.289683699
1.289706768
1.289829724
1.289912184
1.289912173
1.289948228
1.2900115
1.290018453
1.289991504
1.289977947
1.290139646
1.311330241
1.24080021
1.288720616
1.289626736
1.289594289
1.289533722
1.289527727
1.289623362
1.289686998
1.289717761
1.289767522
1.289844518
1.289901823
1.289943522
1.290023135
1.290086126
1.290084546
1.290037191
1.290000076
1.29014567
1.311571417
1.241166838
1.288821426
1.289562171
1.289472043
1.289519271
1.289577686
1.289631209
1.28964491
1.289710838
1.289783985
1.28981783
1.289857835
1.289969549
1.290083589
1.290126828
1.290116374
1.290057903
1.289991147
1.290107066
1.312253423
1.240809185
1.288871903
1.289517221
1.289407492
1.289554492
1.289640536
1.289602015
1.289577168
1.289679585
1.289765223
1.289776081
1.289842409
1.290024585
1.290131815
1.290128322
1.290115208
1.290066224
1.289989959
1.290079247
1.312810493
1.241737664
1.288895769
1.28951955
1.289418948
1.289562065
1.289643275
1.289572971
1.289534011
1.289627911
1.289710717
1.289750218
1.289877286
1.290070892
1.290132658
1.290098042
1.290088369
1.290062478
1.290000015
1.290080156
1.313926271
1.241495128
1.288841959
1.289542833
1.289473269
1.289523769
1.289579882
1.289555845
1.289525569
1.289575469
1.289650045
1.289763248
1.289941637
1.290077397
1.290092355
1.290065897
1.290063601
1.290052043
1.290015064
1.290099117
1.314425934
1.243379016
1.288798987
1.28955201
1.289523206
1.289477507
1.289489369
1.289547746
1.289538144
1.289531367
1.289612056
1.289952023
1.289979722
1.290039933
1.290039943
1.290061566
1.290073034
1.290051357
1.290025358
1.29010841
1.315334173
1.243464832
1.288743425
1.289546386
1.289552371
1.289434115
1.289401968
1.289533386
1.289549702
1.289510257
1.289612587
1.290749296
1.289965966
1.289955959
1.289989301
1.290092502
1.290120948
1.29006796
1.29002585
1.290094556
1.315175438
1.246608132
1.288852641
1.289564412
1.289549691
1.28939742
1.289340634
1.28948675
1.289544372
1.289539667
1.289632414
1.289857842
1.289876718
1.289879741
1.289968645
1.290119098
1.290167881
1.290091176
1.290010422
1.290049599
1.31528259
1.247306773
1.288992612
1.289589776
1.289502668
1.28936921
1.289312181
1.289422534
1.289529929
1.289590359
1.289660754
1.28974164
1.28980195
1.289876061
1.289991179
1.290114322
1.290155442
1.290090319
1.289990176
1.290000112
1.314064242
1.251886705
1.289182821
1.289571988
1.289434673
1.289373735
1.289338302
1.2893947
1.289510555
1.289609705
1.289641291
1.289669818
1.289770371
1.289929898
1.290034548
1.29006673
1.290070175
1.290042559
1.289973586
1.289981598
1.313231736
1.252696527
1.289210484
1.289514795
1.289394224
1.289415216
1.289411609
1.289424587
1.289484307
1.289569387
1.289601269
1.289635699
1.289773722
1.289970359
1.29005163
1.290004913
1.289973528
1.289976291
1.289966608
1.290002193
1.310991827
1.258798441
1.289242227
1.289487425
1.289419108
1.289483328
1.289500661
1.289470856
1.289438718
1.289490306
1.289583299
1.289671013
1.289797915
1.289940874
1.290006582
1.289972146
1.289935205
1.289942774
1.28995773
1.29000745
1.309480058
1.259618838
1.289202684
1.289510886
1.289501458
1.289512244
1.289530799
1.289502761
1.289402805
1.289436308
1.289616453
1.289768593
1.289823383
1.289844529
1.28991158
1.289974503
1.289980481
1.289962509
1.289948042
1.289980235
1.306494786
1.26696732
1.289336314
1.289582499
1.289582899
1.289496848
1.289505656
1.289518863
1.289426962
1.289470761
1.28967709
1.289855111
1.289828639
1.289739976
1.289819466
1.289981086
1.290048548
1.290006307
1.289932082
1.289900405
1.304532076
1.267518334
1.289468554
1.289654713
1.289621896
1.289488404
1.289474316
1.289532026
1.28954089
1.289587159
1.289705253
1.289826646
1.289803081
1.289723777
1.289797606
1.289946143
1.290034976
1.290005052
1.289912433
1.289857342
1.301295837
1.276066053
1.289658684
1.289680639
1.289609193
1.289537119
1.289498842
1.289550401
1.289677157
1.289725458
1.289677564
1.289684179
1.289746318
1.28980068
1.289845472
1.28988326
1.28992401
1.289930971
1.289892133
1.289861569
1.299196558
1.275839446
1.289702035
1.289653345
1.289548626
1.289626224
1.28956434
1.289589092
1.28975243
1.289816958
1.289643837
1.289537258
1.289663541
1.289877494
1.289911021
1.289824672
1.289795523
1.289826174
1.289870688
1.28990964
1.29595353
1.285265351
1.288837103
1.289603021
1.288186847
1.289598924
1.288219608
1.289490779
1.288699742
1.289732939
1.289076947
1.289490405
1.289419059
1.289906971
1.289930623
1.2898837
1.289787489
1.289823008
1.289863242
1.289916526
1.293877315
1.324806667
1.231748242
1.308748478
1.220279293
1.290445795
1.218768165
1.279860615
1.228001809
1.281678211
1.244569517
1.292355392
1.263457326
1.304913895
1.279771955
1.314538373
1.288771911
1.316905037
1.287565644
1.310809372
1.279558624
1.22759781
1.288348926
1.28967089
1.289720571
1.289727012
1.289692143
1.289642931
1.289722231
1.289834769
1.28982794
1.289813104
1.289883953
1.289979115
1.289994166
1.289966017
1.289965176
1.28997338
1.289961101
1.290191109
1.324755439
1.227317173
1.288439056
1.289720621
1.289710634
1.289662973
1.289662579
1.289730295
1.289779699
1.289819024
1.289850819
1.28988339
1.289919341
1.289970436
1.290024193
1.29005866
1.290069138
1.290037342
1.289978854
1.290192616
1.32518478
1.227494108
1.288453281
1.289691818
1.28965052
1.28961423
1.28966156
1.289780842
1.289776147
1.289770118
1.289848055
1.289918503
1.289904295
1.28993898
1.290049016
1.290129025
1.290125274
1.290046393
1.289951706
1.290146768
1.326571412
1.226742573
1.288399016
1.289613993
1.289583349
1.289634046
1.289724601
1.289783725
1.289730003
1.289720072
1.289825499
1.289922954
1.289897037
1.28995348
1.290082802
1.290157106
1.290118412
1.290012538
1.289918147
1.2901135
1.327595992
1.227510529
1.288454944
1.289594801
1.289572416
1.289643324
1.289715415
1.289742419
1.289705133
1.289703976
1.289759479
1.289875914
1.28992944
1.29002786
1.290115505
1.290130373
1.290059825
1.289975471
1.289924473
1.290117825
1.329749309
1.227048888
1.288515357
1.289630931
1.289598979
1.289613643
1.289615426
1.289672216
1.289719379
1.289715152
1.289674896
1.29014832
1.289987389
1.290120626
1.290136071
1.290077853
1.290005047
1.289972413
1.289967364
1.290150235
1.330555886
1.229016309
1.28857003
1.289634876
1.289615522
1.289560615
1.289493361
1.289641855
1.28975347
1.289717451
1.289826618
1.302429498
1.290165872
1.290176037
1.290111694
1.290041141
1.290012816
1.290020637
1.2900185
1.290156574
1.332291342
1.229107291
1.288500795
1.289596175
1.289615413
1.289505402
1.289402354
1.289635882
1.289773424
1.289690385
1.290851893
1.328155721
1.290794174
1.290135119
1.290040159
1.290026336
1.290081113
1.290100356
1.290048071
1.290112457
1.33197923
1.232696871
1.28858013
1.28959368
1.289601373
1.289481185
1.289379769
1.289602216
1.289735838
1.289657084
1.289668099
1.294970508
1.290012244
1.29003159
1.28996899
1.290048308
1.290170954
1.290166305
1.290028764
1.290008533
1.332176241
1.233718547
1.288652049
1.289628232
1.289567664
1.289481695
1.289410368
1.289532804
1.289647914
1.289662258
1.289676709
1.289897859
1.289925641
1.289973492
1.289972074
1.290077794
1.290198404
1.290158054
1.289975446
1.28989784
1.330189715
1.239363597
1.288894221
1.289624794
1.289510954
1.289490367
1.289454976
1.289487959
1.289576949
1.289668332
1.289718102
1.289760645
1.289880605
1.289972147
1.290031048
1.290093238
1.290133038
1.290072668
1.289924035
1.289858651
1.328645094
1.240705465
1.2889581
1.289569811
1.289469265
1.289485561
1.289482457
1.289504491
1.289559998
1.289654626
1.289706021
1.289742675
1.289860663
1.289973418
1.290060262
1.290072744
1.290029257
1.289964785
1.289909928
1.289918771
1.325168181
1.24866837
1.289087507
1.289537639
1.28948468
1.289474328
1.289491645
1.289582067
1.289578605
1.289595881
1.289645444
1.289754591
1.289880739
1.28995737
1.290025937
1.290033772
1.289959471
1.289912305
1.289931593
1.290002983
1.32224651
1.249894224
1.289039229
1.289544258
1.289567651
1.289484589
1.289473916
1.289611084
1.289583272
1.289516767
1.289594045
1.289805042
1.289918193
1.289915903
1.289940668
1.289979913
1.289954691
1.289929217
1.289960524
1.290063006
1.317679077
1.259694744
1.289240169
1.289588333
1.289668095
1.289524269
1.289460492
1.289568663
1.289579383
1.289522494
1.289614227
1.289862412
1.289925799
1.289855317
1.289852871
1.289932871
1.289990068
1.289981058
1.28995993
1.29001753
1.313828396
1.260464345
1.289387348
1.289658317
1.28969819
1.289583066
1.289486216
1.289510847
1.289582979
1.289622447
1.289699178
1.289844527
1.289861511
1.289819812
1.289834642
1.289909605
1.289991531
1.289983122
1.289922935
1.289935891
1.308948644
1.271844342
1.289641621
1.289699254
1.289652715
1.289632351
1.289571558
1.289521877
1.289609622
1.28975051
1.289790845
1.289762422
1.289739489
1.28980666
1.289888925
1.289928987
1.289942004
1.289913384
1.289858334
1.289853912
1.304880986
1.271410342
1.289654612
1.28968179
1.289516334
1.289659795
1.289650062
1.289597234
1.289632617
1.289833001
1.289844891
1.28968243
1.289616506
1.289773702
1.289938942
1.289947679
1.289868398
1.289813951
1.289802176
1.289820197
1.300122931
1.283954079
1.288323574
1.289632658
1.28737011
1.289523437
1.287582156
1.289506352
1.288202821
1.289695259
1.289197285
1.289654451
1.289420844
1.28979332
1.290038766
1.290063387
1.290014062
1.289850368
1.289875602
1.289824255
1.296175643
1.331993882
1.217926234
1.311307657
1.202806335
1.287329187
1.201925017
1.273346208
1.216577078
1.275514456
1.240659334
1.289035203
1.267365227
1.305518662
1.29057707
1.31837317
1.303619787
1.31995587
1.300992148
1.309067572
1.288707536
1.201090529
1.287302975
1.289647949
1.289720895
1.289863826
1.289901289
1.28974902
1.289740508
1.289958263
1.289997815
1.289837034
1.289810066
1.290018589
1.290075825
1.289997722
1.289976686
1.289942641
1.289882131
1.290166742
1.348357781
1.20032049
1.287396548
1.289816898
1.28983007
1.289790952
1.289773776
1.289884369
1.289936218
1.289906333
1.289871244
1.289919997
1.29001234
1.290014968
1.289982195
1.289984112
1.290025719
1.290008968
1.289939521
1.290198695
1.349563974
1.200158718
1.287336733
1.289835366
1.28985266
1.289732373
1.289705353
1.289993306
1.290026927
1.289814332
1.289770083
1.289968336
1.290077985
1.289956708
1.289910152
1.289986358
1.290048306
1.290016578
1.289944956
1.290158644
1.352368832
1.198367429
1.287104377
1.289723332
1.289780614
1.289727871
1.289759356
1.290009176
1.289972568
1.289755769
1.289779988
1.290000603
1.290002951
1.289930069
1.289962166
1.290047108
1.290056591
1.289985677
1.289922758
1.290095746
1.355418492
1.19867505
1.287148582
1.289661933
1.289719878
1.289740382
1.289757594
1.289875829
1.289891727
1.289812658
1.289837778
1.290515218
1.289920169
1.289973573
1.290066338
1.290101429
1.290030835
1.289954354
1.289916267
1.290023847
1.359641739
1.197318664
1.28727588
1.289686143
1.289683914
1.289754294
1.289672944
1.289666484
1.289850263
1.289957437
1.290239442
1.303976179
1.289950091
1.290056953
1.290160898
1.290121637
1.289993728
1.289957364
1.289940008
1.289964487
1.362644297
1.199402776
1.28749507
1.289687356
1.289635493
1.289732664
1.289603096
1.289524696
1.289852467
1.290323238
1.300563531
1.481543577
1.295070517
1.290190942
1.290216453
1.290108147
1.28998257
1.290010949
1.289984352
1.28989404
1.365689552
1.199122197
1.287487287
1.289637564
1.289578489
1.289685627
1.289575558
1.289483968
1.289826695
1.291002212
1.319229875
1.536044651
1.310218428
1.290645156
1.290212207
1.290068846
1.289999553
1.290081292
1.290021212
1.289822582
1.366378486
1.20373602
1.287598605
1.289578628
1.28954262
1.289673752
1.289616572
1.289489729
1.289705887
1.290109027
1.29547015
1.385455802
1.293185475
1.290112504
1.29012115
1.290046996
1.290035751
1.290125009
1.290021891
1.289734894
1.366230511
1.205184831
1.287521676
1.289542227
1.28952947
1.289694294
1.289687091
1.289486991
1.289552485
1.289832073
1.290072022
1.297610268
1.289890807
1.289984374
1.290064488
1.290061821
1.290069282
1.290110642
1.289986035
1.289661332
1.363302128
1.213140336
1.287853762
1.289554157
1.289533915
1.289700369
1.289703961
1.28949118
1.289450268
1.289703302
1.289943707
1.290162692
1.289804473
1.289934328
1.290067783
1.29009583
1.290081157
1.29005751
1.289938303
1.289646241
1.359640914
1.215484043
1.28805032
1.289582951
1.28955026
1.289634941
1.289628505
1.289499823
1.289480826
1.289706159
1.289907326
1.289858249
1.289787485
1.289941124
1.290080838
1.290097586
1.290058446
1.290001961
1.289924412
1.289731216
1.35337567
1.227258955
1.288552329
1.2896172
1.289570319
1.289512144
1.289495174
1.289539491
1.28966326
1.289791316
1.289785282
1.289755744
1.289845488
1.289998286
1.290065064
1.290039304
1.290005956
1.289975888
1.289946744
1.28985931
1.347088056
1.229959479
1.288684934
1.289624438
1.289598101
1.289483581
1.289409615
1.289563841
1.289852586
1.28986177
1.289615564
1.289655932
1.289961565
1.290081378
1.289998752
1.289916024
1.289950267
1.289976574
1.289978309
1.289985519
1.338745152
1.244326832
1.289103145
1.289596701
1.289621221
1.289592509
1.289406684
1.289522065
1.289906648
1.289872496
1.289511195
1.289596229
1.290011253
1.290119199
1.289932153
1.289816556
1.289916308
1.289987096
1.289972694
1.290004835
1.331236393
1.2462708
1.289175635
1.289605868
1.289620856
1.289699613
1.289486493
1.289482979
1.289761252
1.289787415
1.289555663
1.289650764
1.289959967
1.2900342
1.289894917
1.289826204
1.289910795
1.289954536
1.289923893
1.289953043
1.322736986
1.262871462
1.289474834
1.289677394
1.289647264
1.289673368
1.289619245
1.289595271
1.289551946
1.289623479
1.289765613
1.28983831
1.289819691
1.289833141
1.289893998
1.289942493
1.289924234
1.289882009
1.2898445
1.289844299
1.315178762
1.262688328
1.289410479
1.289766089
1.289621519
1.289579909
1.289669475
1.289789595
1.289419277
1.289495033
1.289984893
1.290081029
1.289712035
1.289594406
1.289871989
1.290053476
1.289943766
1.289809224
1.2897737
1.28975034
1.307399091
1.281050162
1.287385935
1.289745036
1.286096973
1.289127838
1.285983792
1.289212908
1.286985729
1.289010487
1.289002467
1.29008957
1.289461639
1.289641925
1.290045051
1.29022546
1.290209202
1.289793562
1.289876042
1.289668146
1.300188336
1.336503127
1.200036201
1.305885126
1.177118055
1.268628402
1.174257963
1.246597579
1.194545446
1.254541595
1.22862879
1.280692609
1.265120798
1.310161575
1.296866878
1.334840184
1.314088343
1.342033206
1.306147056
1.325921179
1.284797036
1.175194221
1.285825462
1.289693866
1.289839419
1.289892809
1.289943306
1.290069092
1.289882698
1.289804694
1.290060627
1.290101347
1.289867389
1.289862806
1.290051018
1.290121742
1.290067093
1.28992803
1.289786489
1.290022578
1.377805048
1.173366795
1.28589601
1.289854304
1.289927539
1.28991949
1.289847619
1.290034184
1.290150218
1.290043991
1.289894737
1.289936502
1.290019147
1.289997055
1.289935137
1.289946824
1.28999494
1.289988618
1.289904077
1.290088104
1.380023294
1.172625958
1.285853941
1.289872684
1.289930059
1.289908296
1.289810736
1.28996584
1.290240246