/*--------------------------------*- C++ -*----------------------------------*\
| =========                 |                                                 |
| \\      /  F ield         | OpenFOAM: The Open Source CFD Toolbox           |
|  \\    /   O peration     | Version:  5.x                                   |
|   \\  /    A nd           | Web:      www.OpenFOAM.org                      |
|    \\/     M anipulation  |                                                 |
\*---------------------------------------------------------------------------*/
FoamFile
{
    version     2.0;
    format      ascii;
    class       volVectorField;
    location    "8.4";
    object      U;
}
// * * * * * * * * * * * * * * * * * * * * * * * * * * * * * * * * * * * * * //

dimensions      [0 1 -1 0 0 0 0];

internalField   nonuniform List<vector> 
30538
(
(0.02474458596 0.003088921248 -0.006068019114)
(0.02930283558 0.002260244424 0.001616422985)
(0.01484373004 -0.001976861418 0.0003933673444)
(0.01867584917 -0.005377008947 0.008027253674)
(0.001538808802 0.003040853028 0.001995018772)
(0.01894103318 0.002606288056 0.003417537314)
(0.001176829251 0.002395524194 0.002269587486)
(0.001847718996 -0.002641991484 0.002701056445)
(-0.02798777119 -0.0008744870417 0.002580648293)
(-0.02223737435 -0.003777018849 0.000958790654)
(-0.04336089413 -0.001166931816 0.001723585465)
(-0.01875208301 0.0001974109658 4.454845941e-05)
(-0.02367490607 0.004218148779 -0.004608948382)
(-0.006812719874 -0.001433051649 -0.0106609143)
(-0.03984911801 0.0008176425844 -0.006677329163)
(-0.01786796472 0.006500548489 0.001623156311)
(0.005309885 0.009824601447 0.004813156743)
(0.04931595281 0.00113750629 -0.002385689877)
(0.03403789209 -0.007500969202 -0.01201290157)
(0.000755704799 -0.007906757763 -0.007349035721)
(0.02861530337 0.004959137921 -0.005438331531)
(0.02581291908 0.004570494237 0.002337462858)
(0.009383205882 -0.00515685273 0.0002507461276)
(0.02225947394 -0.01103099639 0.00657930142)
(0.00709260096 0.001848964883 0.0005535115887)
(0.01849467874 0.001930332695 0.002686381597)
(-0.002560390963 -0.002152305308 0.00259020524)
(-0.0003903564931 -0.008858714957 0.003465544971)
(-0.02880905655 -0.007981926385 0.003593704944)
(-0.02236199043 -0.007332799589 0.002334223585)
(-0.0406032603 -0.006629462178 0.001776807726)
(-0.01496520798 0.001724846886 -0.0007210075934)
(-0.02486933261 0.003207896863 -0.004735482594)
(-0.009226401995 -0.004408739195 -0.008096142917)
(-0.03416722969 -0.001100550926 -0.004716774725)
(-0.01158287139 0.01811677843 0.0004684089281)
(0.001627401098 0.02368548988 0.002432987062)
(0.03705852456 0.003840550265 -0.002610999698)
(0.02753854025 -0.02046213967 -0.0087247694)
(0.01159093366 -0.01893785822 -0.004959425318)
(0.0317923292 0.004461028483 -0.004538967658)
(0.02224108042 -0.0009639577062 0.003232157102)
(0.003817175192 6.806910634e-05 -0.0008576654971)
(0.02361766192 -0.009226707479 0.004646718417)
(0.01060121982 0.001509406911 -0.0005968697549)
(0.0161214304 -0.005323713242 0.002895098973)
(-0.006453703204 -0.005344044497 0.003062197203)
(-0.002198955241 -0.015462534 0.003848401215)
(-0.02697831406 -0.006888357433 0.003870985562)
(-0.02115064336 -0.006615592297 0.002377050726)
(-0.0370320316 0.001210672541 0.0008191495374)
(-0.01177823585 0.004126323939 -0.002251656959)
(-0.02805150749 0.004963083636 -0.004009189949)
(-0.009873184518 -0.007040849966 -0.00446374295)
(-0.02388245284 0.003439824287 -0.002690414802)
(-0.000462559916 0.02376093208 -0.00251094075)
(-0.004640717205 0.03296430778 -0.002114079434)
(0.01806107472 0.004876423363 -0.003016066307)
(0.01787111293 -0.02112233255 -0.003619285751)
(0.02826050394 -0.02289425625 -0.001166202344)
(0.03140314172 -0.0006983036481 -0.00295059531)
(0.02259860514 -0.01241207925 0.004284695382)
(0.003845367007 0.001106944375 -0.001850218198)
(0.02315443341 -0.007744302913 0.002795820122)
(0.009967521673 -0.005291232748 0.0002619446507)
(0.01361886728 -0.01441627193 0.004905769592)
(-0.009756068131 -0.01250650217 0.004700156168)
(-0.0014165137 -0.01988319842 0.004948093982)
(-0.02269123681 -0.01052809304 0.003772891255)
(-0.01652752698 -0.005342179599 0.001989317153)
(-0.03309254228 0.003031530671 -0.001398028159)
(-0.01231088556 0.005039881079 -0.003007252942)
(-0.03275153184 0.0005845410936 -0.002429201505)
(-0.01030991215 -0.006579749263 -0.0003472867393)
(-0.01244089271 0.00532030282 -0.001439825566)
(0.00927689345 0.02157516516 -0.006188119142)
(-0.01174333421 0.02735700618 -0.006927161302)
(-0.001222790764 0.004142123506 -0.003077334394)
(0.007984294966 -0.01439839541 0.001527047734)
(0.04220225324 -0.01718158186 0.002759518491)
(0.02275268955 -0.00374394704 -0.001872825403)
(0.02328076568 -0.02396601802 0.006351616072)
(0.007416419859 0.001607109767 -0.002633178468)
(0.01894779843 -0.008897669756 0.002252473905)
(0.006070818846 -0.007333858326 0.001351297087)
(0.01097380521 -0.0204173463 0.006675490101)
(-0.01033712408 -0.009342245366 0.005508265611)
(-0.0007065959529 -0.01970366926 0.005008756288)
(-0.01683358999 -0.006764989872 0.002667387254)
(-0.0114800786 -0.006155195925 -0.000307676784)
(-0.02980901186 0.007258643424 -0.003913446391)
(-0.01349270496 0.002760360682 -0.003657246005)
(-0.03627657893 0.003351945648 -0.0009410832921)
(-0.006536942057 -0.0007538465743 0.00176026945)
(-0.004067664718 0.01306606559 -0.001816362364)
(0.01517000952 0.01259690172 -0.009639339656)
(-0.01706861231 0.01519024999 -0.009902705076)
(-0.01149618725 0.0008606346655 -0.002448776493)
(0.002990389809 -0.0006897918142 0.005550601783)
(0.05000592488 -0.006523379497 0.00546059487)
(0.01186366931 -0.001804941068 -0.000676841528)
(0.02623715326 -0.02622246314 0.008070113497)
(0.01463847899 -0.0009478752795 -0.001743268527)
(0.01668872752 -0.01269907912 0.003000133713)
(0.001959010064 -0.00777438194 0.003032829835)
(0.01214004732 -0.0220519871 0.007917974851)
(-0.009293031831 -0.006929424899 0.006039295823)
(0.000544515007 -0.01813804672 0.005936415092)
(-0.01325888459 -0.007644607848 0.002015433902)
(-0.00647557694 -0.01039667588 -0.0008004991726)
(-0.02688652124 0.001800422997 -0.005851326549)
(-0.01507544623 -0.002037162184 -0.002586400519)
(-0.03522736624 0.004812508313 -0.000399711261)
(-0.003515569195 0.007515774373 0.001599029287)
(-0.003026718731 0.01647737998 -0.003077325565)
(0.01080057075 0.0005055330246 -0.01033707557)
(-0.02007679026 -0.001521687827 -0.009238981253)
(-0.01246593691 -0.002055054376 -0.0006191292778)
(0.002990700808 0.01187478482 0.007249741583)
(0.04668009899 0.00560280909 0.006254481544)
(0.00289399687 0.006748479597 -0.001658186101)
(0.02382838408 -0.01831731892 0.008270722567)
(0.01716459365 0.0002784165502 -0.001355078531)
(0.01392802029 -0.01682968122 0.004307293231)
(-0.0004311984232 -0.000643201867 0.002747977553)
(0.01153522323 -0.01902856369 0.006879126695)
(-0.007610564144 0.0001593159744 0.005118821305)
(-0.001060786664 -0.01542691276 0.005442119003)
(-0.01147736474 -0.00282054457 0.001536201429)
(-0.004668398356 -0.01490896625 -0.00170630939)
(-0.02396896417 -0.0004581319269 -0.006016627001)
(-0.01137402724 -0.006636994474 -0.00230281459)
(-0.0295201862 0.01227686328 -0.00151460952)
(0.001597501226 0.0137943762 -0.001185603939)
(-0.008991386924 0.0208275672 -0.00463434197)
(0.002402512682 -0.007929755887 -0.008249513463)
(-0.01880960035 -0.007983300681 -0.005607700634)
(-0.001999647815 -0.001632887825 0.001108574859)
(0.008626973487 0.02219212545 0.006122011272)
(0.03706305904 0.01228055536 0.004746456456)
(0.003642051914 0.01482722573 -0.002849446724)
(0.02169023517 -0.00997242396 0.006013233714)
(0.01603797435 0.001084834377 5.462839581e-05)
(0.01580558711 -0.02239833344 0.005813504793)
(0.0005920076402 0.001730046602 0.002593768636)
(0.01264669458 -0.01897548882 0.005570267231)
(-0.006796610796 0.0007660613207 0.00448808664)
(-0.001390697905 -0.01622816728 0.00601945021)
(-0.01303433769 -0.001529649917 0.001583852674)
(-0.004665627122 -0.01984287293 8.25925663e-05)
(-0.0210807529 -0.003415765523 -0.006256045969)
(-0.006141335021 -0.009735477708 -0.001471570413)
(-0.0207764609 0.0153934509 -0.00415285892)
(0.002419278508 0.01313355921 -0.004301690434)
(-0.01835752057 0.0176667927 -0.005298846342)
(-0.009599508056 -0.01128415003 -0.00425971489)
(-0.01558985184 -0.006282682823 -0.000894425385)
(0.008962258969 0.001358667941 0.001679274757)
(0.01310434704 0.02493199914 0.002667093569)
(0.02173472175 0.01246691902 0.001618843184)
(0.006309570773 0.01880554063 -0.004569313821)
(0.01430134183 -0.006194669643 0.004275271323)
(0.008743758155 0.003993693274 0.0005065784728)
(0.01413102681 -0.02444832014 0.006963706384)
(0.002200066459 0.004667342725 0.001441831824)
(0.01076806074 -0.0187960546 0.003713663668)
(-0.005712128081 0.002459420111 0.003174574242)
(-0.002473704389 -0.01711979429 0.004878057376)
(-0.01418909593 0.002597957665 0.001950302497)
(-0.005866487794 -0.02127490536 0.0009400436037)
(-0.01686832603 0.0006310308191 -0.003764302943)
(0.001797622059 -0.008701779036 -0.002483283802)
(-0.01334459549 0.01961847935 -0.006447502839)
(0.00312179688 0.007032224907 -0.00696333402)
(-0.0262440734 0.01217413113 -0.005286790233)
(-0.01450571611 -0.01112319468 -0.0008307290552)
(-0.009897296894 0.002983209546 0.002236132391)
(0.02015004675 0.00348949028 0.0007508250022)
(0.01674861579 0.02159661272 -0.001814427223)
(0.01012081483 0.006129789482 -0.001682048296)
(0.01252239502 0.01767161267 -0.00396280008)
(0.01152433474 -0.01067913284 0.003318288975)
(0.003512345873 0.006459445056 0.001786253218)
(0.0160173762 -0.02449497 0.007165401975)
(0.004787786253 0.007142241444 0.001696268473)
(0.01099299407 -0.02117557165 0.00355956332)
(-0.005666729869 0.001029997373 0.003192092225)
(-0.001050668505 -0.02252166351 0.005300485786)
(-0.01612735735 0.001067515677 0.003370386627)
(-0.00591039656 -0.02457287032 0.003145831761)
(-0.01227626024 0.002366154372 -0.002736844839)
(0.007173886633 -0.01042721682 -0.002990878271)
(-0.009637561479 0.01666904406 -0.007433152471)
(-0.00290588428 -0.00466893914 -0.006910996436)
(-0.03115145102 0.001734677369 -0.003803262191)
(-0.01608125541 -0.01077804502 0.001157395222)
(-0.005276635877 0.009434689634 0.003063685838)
(0.02211969488 0.001445650351 -0.0006608964585)
(0.01514806601 0.01142916501 -0.004878902348)
(0.001686026904 -0.002427517557 -0.003658944591)
(0.01118964843 0.01439245272 -0.003537973325)
(0.006708605944 -0.01668897513 0.003907164802)
(-0.0006698171936 0.01118030844 0.0007848975085)
(0.01435455446 -0.01788970098 0.005701119513)
(0.004732041723 0.01350609541 0.0005640320405)
(0.006395449867 -0.01918700447 0.003239457111)
(-0.006745612493 0.00398517743 0.00272562813)
(-0.002163098183 -0.02326570499 0.004337248259)
(-0.01582841251 0.003809921974 0.003579411837)
(-0.004803542909 -0.02112671723 0.003204417255)
(-0.00695790014 0.007002743747 -0.002572299628)
(0.01185575639 -0.01187006922 -0.0042119853)
(-0.009237175048 0.01192375835 -0.007193308841)
(-0.007496643807 -0.01372257985 -0.00543352211)
(-0.03047009193 -0.0007900242923 -0.002423477873)
(-0.009123373984 -0.007806175869 0.0007179948795)
(-0.001240199508 0.01353825362 0.00154167802)
(0.02156377518 -0.003596118006 -0.001564190568)
(0.0141095788 0.001042712809 -0.005030682374)
(0.003322498598 -0.01107591199 -0.003413817668)
(0.01082905137 0.01354211574 -0.001944334775)
(0.009522018901 -0.02245163201 0.003748419154)
(0.003003536173 0.01530293593 1.424948908e-05)
(0.01738758966 -0.01546119343 0.003381974867)
(0.004107042847 0.01520027941 0.0005727703136)
(0.004202864896 -0.0216938443 0.004298707)
(-0.008671763704 0.005498309289 0.003920331542)
(-0.0008965055534 -0.02591188485 0.004594959434)
(-0.01484756411 0.007586091428 0.003864919279)
(-0.003522579387 -0.01841497558 0.003703291623)
(-0.005813446907 0.009098978945 -0.00115003264)
(0.01059869235 -0.01948587322 -0.003094504407)
(-0.01086677017 0.001548268059 -0.004982799156)
(-0.01197916984 -0.02136433712 -0.002992810449)
(-0.02687604844 0.002590446518 -0.001158062318)
(-0.006037981833 -0.004096063713 -0.0003967239331)
(-0.002309867371 0.01366241477 2.51067262e-05)
(0.01330693701 -0.009044214492 -0.0009472366933)
(0.009905134268 -0.006649398613 -0.001927605559)
(0.008424597169 -0.01616005356 -0.0012607818)
(0.004786309001 0.01506820054 -0.002230917167)
(0.008184169898 -0.02237339655 0.003109012852)
(0.004616696167 0.01862720751 -0.002076546246)
(0.01397034193 -0.0152941975 0.001536883763)
(0.0005804177353 0.01345314451 -0.0005467281339)
(-0.0005155743454 -0.02198669089 0.004354027119)
(-0.009831918862 0.01037698135 0.003161768937)
(-0.0004038963687 -0.01982286425 0.0025241851)
(-0.01075429619 0.01648169453 0.0009753059748)
(-0.00361900975 -0.008926441291 0.001841073049)
(-0.007775161331 0.01366636897 -0.0006701115294)
(0.006462995287 -0.02247026627 -0.001810657838)
(-0.01047070545 -0.005069394344 -0.003598059481)
(-0.006860872095 -0.02207484708 -0.002423592036)
(-0.01822732905 0.01131561632 -0.001729080618)
(-0.00131657898 0.002082931111 -0.001946934855)
(-0.004835259643 0.0157191294 -0.001160114866)
(0.007212530523 -0.0101229982 0.0003389341113)
(0.009109057089 -0.006445329476 0.001523666587)
(0.01914436108 -0.0162181682 0.001111780321)
(0.005581557049 0.01891468784 -0.001949868135)
(0.01224461643 -0.0223371548 0.001633149588)
(0.008331099119 0.0190867736 -0.001884166128)
(0.01343019538 -0.02305439273 0.001649982273)
(-0.0003704560094 0.007897769338 0.000379363113)
(0.001970176862 -0.02728665356 0.004724669777)
(-0.007258487961 0.01379571665 0.00306716398)
(0.003684011658 -0.01760307066 0.0007294721031)
(-0.007369542505 0.01931613714 -0.001017641169)
(-0.005373212716 -0.009512291082 0.0008633025761)
(-0.01542629246 0.01413024584 0.002023356172)
(-0.002664226844 -0.02492861551 0.001429549886)
(-0.01053946178 -0.006086734548 -0.001311500851)
(-0.0005000180017 -0.02179780267 -0.002314916792)
(-0.009801302925 0.01480132456 -0.002557815478)
(-0.002885657123 0.001798397688 -0.002571921089)
(-0.0110849247 0.01599374767 -0.001017846921)
(-0.002328637333 -0.006668319024 0.001559761917)
(0.005653904529 0.001381959551 0.003894995538)
(0.0241332263 -0.01108757041 0.002240962993)
(0.002309676362 0.02112649894 -0.00266690606)
(0.008587319093 -0.01988854831 0.00102846761)
(0.004432429136 0.01813630611 -0.002008283426)
(0.005794869794 -0.02581256347 0.002451992246)
(-0.002151224512 0.007264750741 0.0001071762839)
(0.003565835386 -0.02449080774 0.002899816852)
(-0.003132669127 0.01788402546 0.0001446392055)
(0.003754083885 -0.01447351575 -0.001899048636)
(-0.005231661981 0.0157459022 -0.003198164529)
(-0.007131969363 -0.01628449891 -0.0003823649864)
(-0.0186932204 0.01327473173 0.002492805408)
(-0.007836198397 -0.01745977382 0.002414714421)
(-0.008222938863 0.004215294479 -0.001399687551)
(0.007772028348 -0.01624630558 -0.00356392361)
(-0.001532734659 0.01188073066 -0.004017532479)
(-0.0004376812928 -0.005240248935 -0.002671590267)
(-0.01089430248 0.01433273458 -0.0008163343904)
(-0.003021835281 -4.509854263e-05 0.001309355979)
(0.006080178198 0.01555147217 0.002823872658)
(0.0256324396 -0.002801838434 0.001498026649)
(0.006488538664 0.0229408778 -0.001788160183)
(0.01036597355 -0.02180270574 0.0008919292341)
(0.004455521645 0.01733537704 -0.000447656807)
(0.005459750219 -0.02789442276 0.003078908332)
(0.0007955792646 0.01207726121 0.001114567488)
(0.009390894022 -0.0226534481 0.001264895295)
(-0.000312433671 0.01768942234 -0.001005954253)
(0.002437413268 -0.02093648139 -0.0007611982086)
(-0.008837106385 0.005102184962 -0.0005383200244)
(-0.006976076115 -0.03157814195 0.001419403525)
(-0.0163115646 0.008575484788 0.003257430285)
(-0.009113014622 -0.01004107476 0.002429468236)
(-0.009657926113 0.01746476807 -0.0006039147593)
(0.004803859537 -0.01202693479 -0.002885859489)
(-0.001968733514 0.002752704191 -0.003134077053)
(-0.001140938937 -0.01694883071 -0.001355311324)
(-0.007445459777 0.009448296458 3.162004393e-05)
(-0.001373564047 0.005103158293 0.0001782691704)
(0.003832200337 0.0277958178 0.0002324596898)
(0.01473493109 0.004657215999 -0.000397116591)
(0.003194290826 0.02213893559 -0.001509035073)
(0.004849465073 -0.02287010197 0.001248934737)
(0.0004343296976 0.01669374245 -0.001134688791)
(0.001794482726 -0.02442080826 0.00163226725)
(0.001730240776 0.0191267481 -0.0005441739024)
(0.007477910236 -0.01933552625 -0.001912346291)
(-0.002011001853 0.01549727312 -0.0032346985)
(-0.004862407201 -0.02449676792 0.0006233324062)
(-0.01289300225 -0.001388158267 0.002292143096)
(-0.004544064704 -0.03619293507 0.002614991211)
(-0.003560996049 0.00670050257 0.0005665332035)
(-0.001593389855 -0.004310820676 -0.001203472275)
(-0.009611806426 0.02782303281 -0.002048222852)
(-0.002676405354 -0.005738324355 -0.002019553526)
(-0.00496193138 0.00019173649 -0.00127707023)
(0.004315709473 -0.02057590125 0.0001033598167)
(0.004591992824 0.00744154177 0.0001187084378)
(0.0100170616 0.005904730929 -0.001620433861)
(0.005915260955 0.03163918023 -0.003239307711)
(0.002252980859 0.006262425558 -0.002304800031)
(0.006135459399 0.02234471696 -0.0002405549328)
(0.006640200664 -0.02637722402 0.001184038875)
(0.003630037263 0.01643177939 -0.0009461274539)
(0.006955523164 -0.02473828504 -0.0003296496968)
(0.004566925189 0.02056770124 -0.0008670341383)
(0.006776046036 -0.02414124461 -0.002484543202)
(-0.004076464163 0.01074553731 -0.001984603927)
(-0.009280969322 -0.02918438371 0.003235213582)
(-0.01723095581 0.001362159784 0.006797345539)
(-0.001175211222 -0.03323884691 0.005165510561)
(0.006119395398 0.007524030164 -0.0004430883454)
(0.005772701057 -0.007720634663 -0.003836647238)
(-0.01065419242 0.02591970104 -0.002254055926)
(-0.01477855464 -0.002990540603 -0.0002137914364)
(-0.01245319292 0.00822818163 0.00159881745)
(0.003993231898 -0.01463427907 0.001859205647)
(0.01117907507 0.009627981644 0.0007180575433)
(0.01578123809 0.001106250335 -0.002303507046)
(0.00429111695 0.02211663132 -0.004902589536)
(-0.01253035883 0.0002388176651 -0.003164973066)
(0.0004514841762 0.02243795833 -0.0003140165043)
(0.0006289407265 -0.02702055406 0.0008845852138)
(0.001663222422 0.01599419609 -0.001901829342)
(0.004404566717 -0.02783202437 -0.002343125596)
(0.002209934111 0.01471728631 -0.002766583504)
(0.0004954816177 -0.03095953829 -0.003099795816)
(-0.005568321715 0.006025230046 -0.002089658793)
(-0.01125433904 -0.03066753531 0.002914437224)
(-0.01570432892 0.01257014671 0.005800416775)
(-6.601692471e-05 -0.01291620059 0.004599116504)
(0.01446394585 0.01364012021 -0.00206452767)
(0.01136257016 -0.01416009728 -0.006216241852)
(-0.006290803753 0.01547312393 -0.003453931388)
(-0.01527468531 -0.006320909097 0.000350878331)
(-0.01321048712 0.02181136698 0.002430377909)
(0.005259939911 0.002144928283 0.002548051628)
(0.01577558931 0.0165200393 0.000638562473)
(0.01894706764 -0.005483762508 -0.002360360127)
(0.005536067623 0.006442986351 -0.0046318539)
(-0.01390428854 -0.01190721096 -0.00274807065)
(0.003047838757 0.0220836587 5.392113981e-05)
(0.002573995512 -0.02684778998 0.0003210335548)
(0.003312754786 0.0182363543 -0.0002718282843)
(0.006559816311 -0.03318708983 -0.0006131856907)
(0.002490279376 0.003920855825 -0.000983289794)
(0.0007502704663 -0.03964085232 -0.0008762883615)
(-0.004010511467 0.002140238052 0.0001934853544)
(-0.004902872652 -0.02601151108 0.002210170875)
(-0.00493868057 0.02389765693 0.003443438164)
(-0.0005832746155 0.00321855615 0.001750468572)
(0.005114786929 0.02420944938 -0.0001888546854)
(0.007246662744 -0.02550542844 -0.002236329818)
(-0.004984184425 -0.001621265143 -0.001609099788)
(-0.01029041245 -0.00889094812 0.001001433375)
(-0.006317584326 0.03430368809 0.002168926014)
(0.0001665841872 0.01924722244 0.0008789203366)
(0.005635614991 0.02667464053 0.0005677227191)
(0.008530805951 -0.01186049262 -0.0007589312201)
(-0.000338237904 -0.01227684358 -0.002357968836)
(-0.00919637955 -0.01989322548 -0.0005680860003)
(0.01959466136 0.004259878191 -0.009065142327)
(0.0374522882 0.003589347124 0.006759443126)
(0.02340695768 -0.002296144946 0.0008324918765)
(0.02087238972 -0.008188488091 0.01826702064)
(-0.004653967137 0.0002790406194 0.007603283108)
(0.01935173577 0.001196509263 0.01714928021)
(0.0001479493754 0.002997943168 0.007083820498)
(0.002302570968 -0.001189830457 0.01271403516)
(-0.03030182138 0.001047027624 0.006161085598)
(-0.02320475299 -0.001180323816 0.008172934924)
(-0.04464041121 -0.001125646467 0.001920496638)
(-0.02706677954 -0.001277602106 0.003532569453)
(-0.03806576175 0.003918908249 -0.007793381746)
(-0.009503841567 0.003370529445 -0.01931286125)
(-0.02335905053 0.004510396039 -0.01339368333)
(-0.0024746662 0.004241799705 0.0008312197389)
(1.616175722e-05 0.005246727728 0.01112058236)
(0.02651667337 0.000650350089 -0.007171872108)
(0.02740982349 -0.001293905358 -0.01976519005)
(0.02632633131 -0.003401430105 -0.01853775441)
(0.02524836123 0.007869515398 -0.009149856503)
(0.03289507091 0.007582230922 0.007220673011)
(0.01510450727 -0.007603605772 0.002287564213)
(0.02267541026 -0.01753377693 0.01798553281)
(0.001944238097 -0.00313129023 0.004211418146)
(0.02126840178 0.0008841517688 0.01397601186)
(-0.001555622774 -0.0006715971347 0.007119244329)
(0.0009671832161 -0.006697351414 0.01385451263)
(-0.03031671544 -0.005550627958 0.0080366428)
(-0.0246913968 -0.004696992082 0.01085855761)
(-0.04475364366 -0.008421970758 0.003178564502)
(-0.02353730271 -0.002683893397 0.002030196542)
(-0.03482953569 0.004248679557 -0.008892203051)
(-0.009117841708 0.007273475185 -0.01522125406)
(-0.02272065496 0.006420907035 -0.00933493008)
(-0.001974528545 0.01014888922 -0.001347598937)
(-0.002517257571 0.01043862017 0.006418101763)
(0.02187743673 0.002523629708 -0.007581894217)
(0.02455620689 -0.004581625685 -0.01356994134)
(0.02955835392 -0.00721267398 -0.01322301188)
(0.03084736134 0.009267757047 -0.009077936399)
(0.02662627604 0.002745284136 0.006846298228)
(0.005749113214 -0.003994211513 0.001725828253)
(0.02396927975 -0.01639129153 0.01636334099)
(0.008346481849 0.0009205772951 0.001459520643)
(0.02107362811 -0.001106879677 0.01345353771)
(-0.005209774548 -0.001342834899 0.007579624827)
(-0.001106402835 -0.01266871253 0.01585212258)
(-0.028950128 -0.006557642142 0.007289225251)
(-0.02514753027 -0.007329206771 0.01240194402)
(-0.04330795337 -0.004838438434 -0.0003668684572)
(-0.01811739237 -0.000254191784 -0.0002157420513)
(-0.0310988245 0.009336801892 -0.01031707614)
(-0.008011849626 0.00765590916 -0.008360436669)
(-0.0213373578 0.009670902998 -0.005427583922)
(0.0003313632707 0.01108561275 -0.006731465378)
(-0.005339800796 0.01513412186 -0.002726658587)
(0.01585360499 0.003924133331 -0.008409554074)
(0.02057273097 -0.001652748892 -0.003813232286)
(0.03432281614 -0.008217454397 -0.005009861713)
(0.03402381187 0.004428391364 -0.007737553211)
(0.02361402059 -0.006455031129 0.007497196869)
(0.001824684857 -0.002334525916 -0.0006172886813)
(0.02600837525 -0.01222556916 0.0132918505)
(0.01284394455 -0.001630600611 0.002449228194)
(0.01961545677 -0.00721557207 0.01636049699)
(-0.009737674384 -0.007877293206 0.01086315268)
(-0.002642127849 -0.01768636613 0.0174245105)
(-0.02665818878 -0.01280632525 0.007624531382)
(-0.02335479928 -0.01048885631 0.01001485046)
(-0.0398570451 -0.005962613436 -0.003951011924)
(-0.01352290277 0.002379940497 -0.003563400105)
(-0.02927266621 0.00646910656 -0.00794181862)
(-0.008899909819 0.00525450313 -0.001337906515)
(-0.02029653348 0.007001363312 -0.002443510909)
(0.001890754744 0.00809300157 -0.0142082975)
(-0.007569726351 0.01254009601 -0.01262329839)
(0.009974687506 0.005182232101 -0.008943805743)
(0.01607271917 0.003131991427 0.006003077906)
(0.03607872783 -0.004546085853 0.003261785439)
(0.02961376252 0.0005857437806 -0.004835779955)
(0.02184524597 -0.01682292328 0.01168410696)
(0.001881200067 0.001763934471 -0.002237349053)
(0.0243177811 -0.008483897461 0.01190349123)
(0.01202809069 -0.002119629696 0.004522732894)
(0.01660394082 -0.01469887883 0.02021317853)
(-0.01261166079 -0.006821113296 0.01160762464)
(-0.00450615157 -0.017842359 0.02012600696)
(-0.02397708945 -0.01012306766 0.003377451775)
(-0.02019159679 -0.01151082236 0.007296305561)
(-0.03434086672 -0.001214298521 -0.01566280389)
(-0.009315469588 0.003527428737 -0.003840841159)
(-0.02910788754 0.007229982431 -0.007613975936)
(-0.00762944727 0.002939555029 0.00385248724)
(-0.01932746848 0.00995528334 -0.004016986699)
(0.004262398746 0.004720105349 -0.02040303479)
(-0.007381293481 0.0108038612 -0.01883687048)
(0.009180433355 0.005491793875 -0.007762216751)
(0.01386660966 0.01031641365 0.01338556939)
(0.03479827244 0.0001300526263 0.008839419392)
(0.02257865241 -0.001401111029 -0.0008308634981)
(0.02441713794 -0.02264501086 0.01771796898)
(0.007846315448 0.001453692163 -0.001023644763)
(0.02308855984 -0.008800570012 0.01256635903)
(0.008630510681 -0.005163841992 0.007789495643)
(0.01622324127 -0.02170796831 0.02156348764)
(-0.01197019482 -0.007673646086 0.01260238304)
(-0.004880929033 -0.01735359435 0.02035471372)
(-0.02230831285 -0.009805058431 0.003599800201)
(-0.01693100756 -0.01309221814 0.001544568265)
(-0.02934616705 -0.002185602553 -0.01965669887)
(-0.007557718691 0.0004767884902 -0.00442778941)
(-0.02971862634 0.00370779469 -0.004289080671)
(-0.007000541043 0.001876215576 0.002875761776)
(-0.01902603231 0.01109158712 -0.006356325689)
(0.002473893455 0.003058847177 -0.0219877645)
(-0.006998797254 0.006614771054 -0.01702065796)
(0.009625481424 0.004666205392 -0.004478471101)
(0.0124860007 0.01297336459 0.01613797845)
(0.02814813954 0.00419643506 0.01014185003)
(0.01252188089 0.002648649275 -0.0005187209533)
(0.02382047144 -0.02222414476 0.01955434306)
(0.01183843768 0.003666507805 -4.955935622e-05)
(0.01943830862 -0.01141247948 0.01450420166)
(0.003093473289 -0.001501305333 0.007344420816)
(0.01476863746 -0.02352863653 0.0207536528)
(-0.00955636271 -0.002792980022 0.009985561398)
(-0.005900160569 -0.01531360937 0.02220748123)
(-0.02108693796 -0.003620254827 -0.000617511598)
(-0.01468322478 -0.01325247602 0.002039015347)
(-0.02484759145 -0.001171337029 -0.03083988404)
(-0.005164097877 -0.004542308215 -0.001297287648)
(-0.02814276836 0.005176222862 -0.008820965985)
(-0.002478551627 0.002531893991 -0.001251543726)
(-0.01848841979 0.01658234813 -0.01121278841)
(0.001059416469 0.003551677188 -0.01722702598)
(-0.006222820666 0.007872221339 -0.009227968082)
(0.01368987837 0.002739477269 -0.0005615467664)
(0.01374234773 0.01349244848 0.01340717629)
(0.02213421865 0.003418061348 0.006774916146)
(0.008563251013 0.009328437333 -0.003752529824)
(0.02519451909 -0.01759481338 0.01574963742)
(0.01573370632 0.004607820726 0.001603589357)
(0.01921839682 -0.01727604465 0.01647984555)
(0.0002929442481 -0.0007808873824 0.006248956172)
(0.01525023175 -0.02504358451 0.0170789554)
(-0.006223276591 -0.002987886751 0.00981460175)
(-0.005313494648 -0.01736444536 0.01980347304)
(-0.020995234 -0.000714641464 0.001061529799)
(-0.01505125522 -0.0148291809 -0.0008289604633)
(-0.02325104942 0.000960471358 -0.02705003118)
(-0.003160862319 -0.01011786181 -0.00292120042)
(-0.02469396906 0.006056544141 -0.01101211304)
(0.0009579598935 0.002117383596 -0.009826700869)
(-0.01828203667 0.01642330041 -0.01303142863)
(-0.003723689169 0.002789107379 -0.009989993713)
(-0.007564216406 0.008666144758 0.0009463526522)
(0.01362647089 0.0007128703043 0.001023659555)
(0.01316050449 0.009887180042 0.006686561952)
(0.01571183678 0.0002255272815 0.0002463984485)
(0.006513464139 0.01675366326 -0.00737741247)
(0.02069913335 -0.01138035055 0.01048966216)
(0.01230986909 0.007269315888 0.002709298335)
(0.01539900368 -0.02186313438 0.01888111954)
(-0.002156984092 0.002939581356 0.004329604136)
(0.01314983857 -0.02266328804 0.01561991261)
(-0.004192744762 -7.101956853e-05 0.007526064539)
(-0.004110008677 -0.01851974525 0.01958348094)
(-0.01946588002 0.006016723306 -0.0002082036399)
(-0.01341947097 -0.01550429853 0.006415178398)
(-0.02154817554 0.007412403285 -0.02192805443)
(-0.00162568496 -0.01166245364 -0.0005984539241)
(-0.01945529698 0.01339042165 -0.01737860238)
(0.004739063813 0.002037135444 -0.01437438934)
(-0.01797693061 0.01503475053 -0.01411336951)
(-0.004430074024 -0.0008659313817 -0.002418607973)
(-0.007693434904 0.01056986712 0.00690899865)
(0.01458719583 -0.0009694324072 -0.0004524680396)
(0.01356507119 0.007305892019 -0.002125379447)
(0.01455557803 -0.003898213273 -0.00643493284)
(0.01219541348 0.01971852817 -0.008459059353)
(0.01885955069 -0.01143383513 0.007690849595)
(0.008639433733 0.007010498966 0.004731525295)
(0.01590578413 -0.02691028317 0.01932659508)
(-2.942724682e-05 0.00546771879 0.005264144236)
(0.01302912269 -0.02214467642 0.01439405992)
(-0.003361039144 0.0001233682818 0.008339003922)
(-0.0008030592521 -0.023572825 0.01545828837)
(-0.01902220194 0.004170189133 0.004135177021)
(-0.0140212693 -0.02032037578 0.007431833671)
(-0.02056235646 0.004695668187 -0.01066958283)
(0.001011119731 -0.0137994738 -0.00480073727)
(-0.014977343 0.01521905049 -0.01738864018)
(0.002013409914 -0.001856837948 -0.01661329107)
(-0.02028264521 0.00720151665 -0.009836112291)
(-0.00687230602 -0.007898106105 0.0008676043802)
(-0.007665717785 0.008128844635 0.008154105)
(0.01133947415 -0.003022024176 -0.003868950451)
(0.01120778255 0.005328470795 -0.008219684423)
(0.01291842396 -0.005731089741 -0.010321737)
(0.01218005384 0.01831060109 -0.00715019026)
(0.01218072638 -0.01593881411 0.007775452638)
(0.001718777133 0.007843896107 0.00381279292)
(0.01406381222 -0.02508327717 0.016816844)
(0.00141839426 0.01137788872 0.003649263147)
(0.009300078264 -0.01787089206 0.01469220282)
(-0.005286197473 0.005339679972 0.006956219966)
(-0.0009979960068 -0.02463014897 0.01478747372)
(-0.01735268278 0.004758884831 0.004502592022)
(-0.01298357277 -0.02009782437 0.01273862562)
(-0.01695031462 0.01009249149 -0.008310401262)
(0.005745227857 -0.01215215249 -0.004477104498)
(-0.01096134479 0.01657912625 -0.01814563395)
(-0.001039303395 -0.0063720278 -0.01202447306)
(-0.02218380297 0.004251807479 -0.00568517265)
(-0.003786665804 -0.01082999268 0.001310413057)