/*--------------------------------*- C++ -*----------------------------------*\
| =========                 |                                                 |
| \\      /  F ield         | OpenFOAM: The Open Source CFD Toolbox           |
|  \\    /   O peration     | Version:  5.x                                   |
|   \\  /    A nd           | Web:      www.OpenFOAM.org                      |
|    \\/     M anipulation  |                                                 |
\*---------------------------------------------------------------------------*/
FoamFile
{
    version     2.0;
    format      ascii;
    class       surfaceScalarField;
    location    "2.8";
    object      phi;
}
// * * * * * * * * * * * * * * * * * * * * * * * * * * * * * * * * * * * * * //

dimensions      [1 0 -1 0 0 0 0];

internalField   nonuniform List<scalar> 
91025
(
-1.835501999
0.09213440943
-0.06930337713
-1.621773288
0.2172540123
-0.03331122854
-1.196755465
0.3670720415
-0.1323194662
-0.7063317939
0.4430730281
-0.07137792307
-0.1551627717
0.5088618476
-0.1149017272
0.3277039083
0.491444616
-0.03917667061
0.7480283177
0.4614964641
-0.04697648798
1.09137895
0.3514280255
0.008738315951
1.376702066
0.2258990486
0.01191794195
1.619884644
0.03357124155
0.03837893181
1.797625446
-0.1658600088
0.02792039257
1.843646292
-0.3882448391
0.01725307411
1.693562934
-0.5708190096
-0.01747569961
1.322657289
-0.7287335219
-0.05087242747
0.716612892
-0.7989304193
-0.08709059296
-0.05655916591
-0.8050459848
-0.1089006391
-0.9162190394
-0.7101009018
-0.1216802761
-1.682571107
-0.5671769353
-0.1075535728
-2.247189155
-0.3574328608
-0.07499309637
-0.1336989469
-0.03236933549
-1.759515256
0.1763375429
-0.06931104441
-1.55741548
0.4109316746
-0.03187652674
-1.149579399
0.699311991
-0.1313086332
-0.6811362868
0.8428304899
-0.06922080692
-0.1539079862
0.971300179
-0.1130291626
0.3051338351
0.9375950485
-0.03678177272
0.7020901233
0.881405579
-0.04442850551
1.022424026
0.6712743502
0.01018440531
1.287053528
0.4323960397
0.01514622795
1.516112863
0.06779912488
0.03995598289
1.68935353
-0.3090606466
0.03335217173
1.744932534
-0.7289012097
0.0215909484
1.617950475
-1.074400209
-0.009386982528
1.281822717
-1.370406011
-0.04369226234
0.7166084706
-1.502133295
-0.07841567916
-0.01375324227
-1.513537161
-0.1016125762
-0.8396089688
-1.33779593
-0.1151153923
-1.581805608
-1.068212795
-0.1029412205
-2.128414319
-0.6716570594
-0.07173560971
-0.2508076812
-0.03133375584
-1.618805529
0.2457228643
-0.06859571084
-1.437887026
0.5616974838
-0.02989664755
-1.063040148
0.9672847246
-0.1290217806
-0.6359373924
1.162333513
-0.06610752514
-0.1548729234
1.348279363
-0.1105053382
0.2590987745
1.299030738
-0.03311187469
0.6114821198
1.227478571
-0.04345626493
0.8884799169
0.9327264312
0.01263969737
1.117224975
0.6102394159
0.01255771374
1.320422918
0.1058177074
0.04284866615
1.49089261
-0.4009089167
0.03038733385
1.563846339
-0.9781534886
0.02892296644
1.483208932
-1.444393084
-0.003880465845
1.211317817
-1.848018639
-0.03119631785
0.7214935995
-2.021759551
-0.06708542716
0.06359135478
-2.041414519
-0.08884590501
-0.6947938595
-1.806468585
-0.1044703964
-1.391966773
-1.444216183
-0.09461696236
-1.906489255
-0.9049821892
-0.06641402935
-0.3382584613
-0.02937578956
-1.422336307
0.295458127
-0.068452525
-1.269451474
0.6532523964
-0.02603728306
-0.9384501512
1.146560642
-0.126349773
-0.5682174313
1.369984811
-0.06128771037
-0.1499126235
1.604242003
-0.1068286934
0.2010530658
1.54213186
-0.02842335135
0.4921384092
1.465401702
-0.03733738979
0.7102954893
1.113727213
0.01626378842
0.8872681546
0.7398292829
0.02182053828
1.056666318
0.148826369
0.04756194402
1.214996049
-0.4348509431
0.04585595776
1.315151428
-1.107410212
0.03925272219
1.293217122
-1.644103847
0.0158249442
1.109558166
-2.107458647
-0.01403672107
0.7222523579
-2.303000498
-0.0460917394
0.1636036424
-2.329195698
-0.07167663559
-0.5031285422
-2.062941942
-0.08796768458
-1.136939484
-1.651411625
-0.08327675101
-1.606662962
-1.032313491
-0.0588089095
-0.3864511537
-0.02690688502
-1.194144965
0.3219115034
-0.06687254043
-1.072353931
0.6777606016
-0.02257909969
-0.7936188659
1.223170666
-0.1222982513
-0.4899757297
1.447040944
-0.05712811617
-0.1480744073
1.720415179
-0.1045073423
0.1274382572
1.644881391
-0.02449931529
0.3457065318
1.583104033
-0.03733791442
0.4944901911
1.20101285
0.01993029001
0.6159573975
0.8250848835
0.01631680983
0.7463525732
0.1964561043
0.05182967873
0.9021192572
-0.3900960415
0.03699712269
1.0354946
-1.099634979
0.04868811942
1.084060825
-1.637983867
0.02034138548
1.00067229
-2.120705041
0.002799126901
0.7294190103
-2.309634723
-0.03163619886
0.2838873863
-2.34745842
-0.0541350038
-0.2822749858
-2.075261768
-0.07329661667
-0.8417343967
-1.667655747
-0.07140525977
-1.261528285
-1.03782692
-0.05166324075
-0.3915083527
-0.02411126934
-0.9495147252
0.3252378002
-0.06604480623
-0.8584823016
0.633711711
-0.01736809288
-0.6325230134
1.194084871
-0.1177965163
-0.3986340905
1.388300385
-0.05154499712
-0.1360349812
1.686622082
-0.1002158774
0.05897552764
1.599016814
-0.02023978836
0.1997958018
1.566150158
-0.02926602537
0.2773911009
1.187760757
0.02432581202
0.3387751333
0.8461434914
0.03025687267
0.4308442716
0.2426869005
0.05618767195
0.5735667614
-0.2905769781
0.05772828728
0.7430233731
-0.9604305301
0.05738553095
0.8610375574
-1.447175062
0.04188173799
0.8810078727
-1.899877216
0.01763095341
0.7282947612
-2.063565484
-0.01108654118
0.3980565876
-2.10986344
-0.03844031737
-0.06612110163
-1.857766726
-0.05777355524
-0.5480757282
-1.503352963
-0.0607731803
-0.9153122024
-0.9284763171
-0.04469736738
-0.3545163659
-0.02150847005
-0.7184622092
0.3077431779
-0.06359921374
-0.6545792314
0.5313306915
-0.01384695101
-0.4793963398
1.072735887
-0.1122314364
-0.3112800936
1.208950526
-0.04725106828
-0.1259281756
1.520442104
-0.09798337773
-0.009896160494
1.417766078
-0.01732796065
0.05306178401
1.435848932
-0.03043720474
0.06564141702
1.082434385
0.02763660061
0.07530617198
0.8245235934
0.02256039559
0.1336719306
0.285158531
0.05874642217
0.2781053913
-0.1283123673
0.04131814646
0.4822527655
-0.7114219377
0.06149569166
0.6688774872
-1.086360722
0.03818977435
0.7809696385
-1.481719704
0.02636326394
0.7336320096
-1.59948528
-0.004990271879
0.5064031733
-1.661823192
-0.0287420483
0.1327973274
-1.447960466
-0.05009311499
-0.281765032
-1.194279979
-0.05395215559
-0.6040324707
-0.7245917636
-0.04053772771
-0.2853177292
-0.01955356167
-0.5114289804
0.2757221643
-0.06178687589
-0.46932939
0.3873858632
-0.009542889561
-0.3362598977
0.8834146555
-0.1058177699
-0.2244918509
0.9397364614
-0.04130277809
-0.1051428965
1.251303612
-0.09171730828
-0.06135828495
1.1344975
-0.01326974837
-0.06331582391
1.210020747
-0.02227083883
-0.1093024999
0.9011039121
0.03103963107
-0.1430739964
0.7528487599
0.03682215532
-0.1091146223
0.3188507959
0.06060711082
0.02812489014
0.05758719134
0.06141346585
0.2616033882
-0.3891853687
0.06245736194
0.501358222
-0.6262465795
0.05037365467
0.6890095037
-0.9336141946
0.02892963138
0.7278229389
-0.9997439284
0.002381250075
0.5845613848
-1.078359884
-0.02577479945
0.2843845866
-0.9234700054
-0.04618485647
-0.07682137411
-0.789902214
-0.05154548213
-0.3610062489
-0.4634856298
-0.03886153451
-0.1967144669
-0.01834310653
-0.3522236815
0.2370046651
-0.05861209531
-0.3251493635
0.2257514801
-0.007156153202
-0.2250223628
0.6641881204
-0.0991158392
-0.1555795533
0.6289905744
-0.03642555724
-0.08840040777
0.9346000253
-0.08688930632
-0.09927391787
0.7985867029
-0.009894960588
-0.1515154298
0.9356641116
-0.02304379309
-0.2429998907
0.680139757
0.03339671378
-0.3040511625
0.6605292403
0.03081163667
-0.2902585759
0.3428576229
0.06056332208
-0.1424403887
0.2596490689
0.04922524357
0.1139789397
-0.04011270597
0.05920686651
0.3932965483
-0.1204667924
0.03926004138
0.6304400935
-0.3366040654
0.0237182791
0.7246439277
-0.3459238781
-0.005649792371
0.6352484387
-0.4472639591
-0.03087484756
0.3802833321
-0.3584277497
-0.05084115174
0.05563700214
-0.3553539696
-0.05466384931
-0.2052292649
-0.1846100519
-0.04036617548
-0.103232062
-0.01869435275
-0.2371014992
0.1979944027
-0.05568020051
-0.2177266386
0.06373222733
-0.004166066753
-0.1390416429
0.4424076495
-0.09096513449
-0.09663324033
0.3140935923
-0.02974962934
-0.06402652195
0.6104201201
-0.07676027014
-0.1104650211
0.453333711
-0.004929860583
-0.1976740478
0.6483935738
-0.01472753163
-0.3171711686
0.4508848467
0.03574136242
-0.3957632975
0.5503276254
0.03998996418
-0.3883744308
0.3559190463
0.06004732954
-0.2420298284
0.4369565632
0.05762827031
0.02903715
0.2859649053
0.05216822139
0.3228907404
0.3470935798
0.03592983497
0.585410465
0.2175086964
0.01143901456
0.7070892121
0.2551336973
-0.01594273276
0.6440967081
0.1355479808
-0.04309214943
0.412864293
0.159816094
-0.06094634387
0.1092681323
0.04242202143
-0.06208081888
-0.1389088144
0.06845247424
-0.04559911756
-0.01958678457
-0.01945789888
-0.1778008194
0.1651058247
-0.05198187285
-0.1591165612
-0.07880474793
-0.002747694208
-0.090857432
0.2498722351
-0.08358860412
-0.06003264748
0.03711949129
-0.02427000987
-0.04396847773
0.3263494963
-0.0691638416
-0.1060798536
0.1461473015
-0.0009352143662
-0.2098638879
0.3933575222
-0.01389381899
-0.3400977818
0.2422101753
0.03614600614
-0.4207121962
0.4498480534
0.03550051595
-0.409018395
0.3576580615
0.05779140817
-0.2560225557
0.5793037078
0.04706837835
0.01747088664
0.5454748289
0.04295394857
0.3121609792
0.7225371628
0.01878622301
0.57315918
0.6549674222
-0.005019368414
0.6907152786
0.7244525468
-0.03477961617
0.6215391624
0.5776462918
-0.06008998501
0.3856934245
0.5487959922
-0.07542741574
0.08413621316
0.3389304502
-0.07371438931
-0.1617859751
0.2553717345
-0.05178768368
0.04192575566
-0.0219903515
-0.1553039214
0.1432178498
-0.04767348182
-0.1331592427
-0.1848710447
-0.001070130031
-0.06598400666
0.1107615707
-0.07369635565
-0.03424540675
-0.1711715087
-0.01739233237
-0.02020398775
0.1154931195
-0.05615500416
-0.08151868549
-0.08769784758
0.005368983664
-0.1878054839
0.1974291206
-0.005407697362
-0.314471696
0.07790738211
0.03697087496
-0.3895910906
0.3661721972
0.04082600621
-0.3666596066
0.3489441843
0.05596437529
-0.2146186254
0.6700239568
0.0474424717
0.04784568036
0.7148597054
0.03177241532
0.3246598674
0.962504189
0.006275279391
0.5649422655
0.9270851574
-0.02429896241
0.6584462101
1.006970474
-0.05361185117
0.5676283319
0.8342537872
-0.07821014433
0.3154980371
0.7678745705
-0.09167917516
0.004161356351
0.4982296038
-0.0850524192
-0.2422036974
0.3556981143
-0.06003946049
0.07236072803
-0.02346665428
-0.1714144357
0.1369208921
-0.04349038008
-0.1426026911
-0.2435475865
-0.0002973430595
-0.06896855301
0.04145423933
-0.06594067969
-0.02648351786
-0.2883836925
-0.0117298935
-0.002020642813
0.002238644254
-0.04761524382
-0.04971357526
-0.2286882334
0.01020690878
-0.1430767594
0.08321465674
-0.004280194315
-0.254696249
-0.02626866635
0.03648256161
-0.3111436566
0.3132127175
0.03685773496
-0.2747056064
0.3321711474
0.05283137391
-0.1223326145
0.7084716681
0.0380347127
0.1176958141
0.7813900288
0.02104218989
0.3650011431
1.053951498
-0.01041168404
0.5670088419
1.014849313
-0.04132181869
0.6198288931
1.085440463
-0.07065998805
0.4949602588
0.8856782494
-0.09341238477
0.215475292
0.8005278836
-0.1033615205
-0.1096692768
0.5083897744
-0.09473723985
-0.3624395859
0.3612816838
-0.06449788045
0.06973617753
-0.02589227046
-0.1960802904
0.1449426692
-0.0376741737
-0.1604057316
-0.2529735684
0.0003092477133
-0.07890655846
0.04348258283
-0.05426565383
-0.02250983081
-0.3093621393
-0.005569657477
0.01758907725
-0.01119082935
-0.03303152842
-0.01180145966
-0.2683065042
0.01560305394
-0.08805035408
0.05135559919
0.00509990512
-0.1777598811
-0.06902357952
0.0365042134
-0.2152077248
0.2899658852
0.03975496091
-0.1661391395
0.3088163905
0.04879307283
-0.02191270119
0.6934693988
0.03420099832
0.1880868373
0.7487283909
0.01000722779
0.3970062444
1.00055492
-0.0223489955
0.5551298191
0.9266327331
-0.05590932334
0.5670157949
0.9694980613
-0.08457285299
0.410241442
0.7429105494
-0.1043171362
0.110078007
0.6565109796
-0.1136565873
-0.2235327677
0.3767083057
-0.09999331344
-0.4763474142
0.2760761806
-0.06953237234
0.03536054515
-0.02572635226
-0.2297647513
0.1676347113
-0.03319201364
-0.1872990363
-0.2185719636
0.001295733696
-0.09770678218
0.1137532103
-0.0461748579
-0.02768944245
-0.2433764091
-0.0007283699383
0.03063654428
0.06904140066
-0.02559255774
0.02177294846
-0.2148775637
0.01923493706
-0.03041875776
0.09954511304
0.005253798472
-0.09447450675
-0.05281739622
0.03537464653
-0.1097650945
0.2977283014
0.034855884
-0.05049721697
0.2798804822
0.04448157757
0.07669741721
0.6316934519
0.02658782179
0.2561100749
0.6302203171
0.002772095764
0.4230773332
0.8285230189
-0.0302012512
0.5342041901
0.696160295
-0.06249231591
0.5060749717
0.6973469339
-0.08822669624
0.3242211468
0.4454395506
-0.1064598455
0.008254865314
0.368192344
-0.1124532188
-0.3223137947
0.1343794364
-0.09958376974
-0.5713254848
0.1169844092
-0.06697690849
-0.02461730594
-0.0264735944
-0.2419033053
0.1991276874
-0.02615048588
-0.1962580961
-0.1501635399
0.001961954835
-0.1054958841
0.2317912031
-0.03289674793
-0.02752133498
-0.1123353896
0.00430463911
0.03921929567
0.2159167881
-0.01183436447
0.0482913943
-0.09080414642
0.02200631168
0.01437774218
0.2047446089
0.01387019867
-0.02644040159
0.007631901119
0.03358433712
-0.02779041717
0.3260472973
0.03573848236
0.03188316165
0.2491697406
0.03879865604
0.1400096499
0.5370095044
0.02283999475
0.2853969931
0.4555251857
-0.003054698375
0.4127405258
0.5798516811
-0.03385665227
0.4847762771
0.3750183202
-0.06447701132
0.4323187748
0.3280191077
-0.08838415247
0.243955919
0.05133992476
-0.1023760122
-0.05867617359
-0.009134657604
-0.1087153792
-0.372294744
-0.1782941968
-0.09277165068
-0.6020830438
-0.08665673371
-0.06458756905
-0.1002916639
-0.02341159697
-0.2372970787
0.2366559926
-0.02147946385
-0.1918252487
-0.06633783522
0.003207179177
-0.1057119489
0.3730201123
-0.02588804319
-0.02846086648
0.04699687456
0.00734233571
0.04059943254
0.3936017866
-0.00872515818
0.06028352469
0.06333451671
0.0215303398
0.04526941177
0.3379586182
0.0102620185
0.02221077313
0.09245287584
0.02994754285
0.03264079629
0.368082678
0.02808488309
0.08815783594
0.2191244869
0.03318888274
0.1777414037
0.4317189345
0.01716684204
0.287986333
0.2616007859
-0.00367648056
0.3783773982
0.3098102744
-0.03053990349
0.4154673974
0.03008735011
-0.05657615984
0.3483081933
-0.06339975684
-0.07498158695
0.1711146777
-0.3607895456
-0.08787673498
-0.1013879436
-0.4013647779
-0.09065932131
-0.3769855916
-0.4985604622
-0.07954048994
-0.5774801131
-0.2962515083
-0.05281645433
-0.1770389248
-0.02126510799
-0.1946651406
0.2696636328
-0.01354714593
-0.1568847812
0.01298967838
0.002724166621
-0.08682848593
0.5026525169
-0.01383383541
-0.02211817077
0.197503361
0.007744498907
0.03548772118
0.555794808
0.0004510225937
0.05664868
0.2085881485
0.01837503134
0.05037078863
0.4608918491
0.01451044286
0.03912183239
0.1762517268
0.02387988961
0.05194778194
0.407574345
0.025186706
0.09608253643
0.1966467951
0.02474201886
0.1614983931
0.3393485092
0.01350887195
0.2383845105
0.09285420173
-0.005073034394
0.2978125052
0.07241882608
-0.02584612565
0.3149384513
-0.2701439212
-0.04589387932
0.2551734194
-0.402184492
-0.06093320243
0.1127570779
-0.715481824
-0.06891869239
-0.1009058042
-0.7372905042
-0.07267219229
-0.3159263169
-0.7762223113
-0.06110284669
-0.4701072802
-0.4754318571
-0.04283850627
-0.2433189598
-0.01507935004
-0.1323850139
0.2944084975
-0.009474276905
-0.107909691
0.06989981246
0.00302560038
-0.06007268681
0.5947606389
-0.01020167688
-0.01744163689
0.3039520329
0.006267519354
0.02355768153
0.6716334463
-0.002348991649
0.03903615022
0.3117107714
0.01252810704
0.04051727109
0.5518613835
0.005755860459
0.03720850162
0.2392577759
0.01608446523
0.04892790505
0.438973388
0.01366860133
0.0773201117
0.183516824
0.01686520852
0.1184443092
0.2795876829
0.008066088302
0.1645187498
-0.02004005319
-0.001710408956
0.1962923701
-0.0870567412
-0.01496209261
0.2021295504
-0.4726963974
-0.02743593073
0.1569358993
-0.6280871452
-0.03541856459
0.06286407101
-0.9536259629
-0.04201183206
-0.07813251097
-0.9645396325
-0.04230938399
-0.2157867846
-0.9643193444
-0.03797782297
-0.3155470374
-0.597127443
-0.02440062116
-0.2862618279
-0.01047195564
-0.04231217503
-0.001635368235
-0.03262371963
0.0005636311703
-0.01659297926
-0.0006839446056
-0.00184713418
0.0019180717
0.00981410804
0.002881907735
0.01437085849
0.003903624354
0.01202911556
0.005515364382
0.01138182109
0.004967010641
0.01520046263
0.006949290015
0.02511304256
0.004758510407
0.03995619086
0.00306804244
0.05643456239
-0.00228643814
0.06773946134
-0.006930184379
0.06835351147
-0.01130829301
0.05346030532
-0.01492119177
0.0196004378
-0.01599426609
-0.02921322701
-0.01751029811
-0.07746525021
-0.01350431801
-0.110627973
-0.01051950664
-0.002682025842
-1.920606337
0.09341454522
-0.1126057623
-1.673522974
0.2215782454
0.002737346336
-1.204465682
0.3722677297
-0.1653039863
-0.6754733817
0.4497642509
-0.01769884977
-0.09980110139
0.5181967553
-0.09921232625
0.3930283617
0.50082304
0.04538814756
0.8050353933
0.4732914777
0.02706388248
1.141350118
0.3589292995
0.1179072449
1.403592514
0.234981358
0.1152240569
1.622342253
0.04183873441
0.1455701177
1.763723557
-0.1555701526
0.1177896571
1.78599243
-0.3732370645
0.08641902513
1.623051523
-0.55060756
0.02105490713
1.256935696
-0.7038804542
-0.04445020226
0.6664400037
-0.7723554569
-0.1149875036
-0.08253082161
-0.7787186015
-0.1580024279
-0.8984887037
-0.6884207588
-0.1898029506
-1.628479831
-0.5498996156
-0.1649869974
-2.1581124
-0.3462494638
-0.1202284525
-0.1294774218
-0.04895958322
-1.84285389
0.1790776623
-0.1129139959
-1.607767527
0.4197766866
0.005008685422
-1.156121972
0.709681355
-0.1638170856
-0.6492579941
0.8554884766
-0.0140733283
-0.09799139112
0.9881717552
-0.09593025771
0.3701905908
0.9542805914
0.04889951794
0.7575889902
0.9030798143
0.03220616556
1.070966464
0.6859966551
0.1199723976
1.313228294
0.4500540518
0.120611725
1.518301417
0.08366983422
0.1481396724
1.657012556
-0.2890168902
0.1264262325
1.689039508
-0.7007766296
0.09375285777
1.549214975
-1.036545787
0.03405702246
1.216840551
-1.324654175
-0.03205953795
0.6662314887
-1.452912602
-0.1004221145
-0.04184133146
-1.46563332
-0.1453987151
-0.8237000782
-1.295861946
-0.1785505383
-1.529624932
-1.035768387
-0.1566243502
-2.041917904
-0.6510982829
-0.1146310699
-0.2431964223
-0.04691744848
-1.698606108
0.2498853267
-0.1119054418
-1.485598913
0.5747382433
0.00813063891
-1.067443394
0.9822190644
-0.1599235607
-0.6021039508
1.179314965
-0.008558367825
-0.09730693226
1.369265141
-0.09132788153
0.3245471072
1.319488941
0.05506665665
0.6664037788
1.255261397
0.03416858262
0.9367590328
0.9532164203
0.1234017659
1.143486221
0.6330398145
0.1164696605
1.324173615
0.1267492087
0.1524262884
1.461369834
-0.3771848419
0.1223474249
1.512052489
-0.9426154741
0.1062217164
1.416646783
-1.397561099
0.04472744391
1.146564281
-1.789613514
-0.009907936107
0.6689749151
-1.959639424
-0.08012384768
0.03403565075
-1.979549819
-0.1229567175
-0.6842349159
-1.751850708
-0.1599814166
-1.345094311
-1.401439446
-0.1416681766
-1.825923462
-0.8786346429
-0.1052820462
-0.3284864334
-0.04316824738
-1.49865788
0.3008529023
-0.1122926766
-1.315318822
0.6699788713
0.01415603777
-0.9419223533
1.165441108
-0.1561049651
-0.5334575753
1.390419899
-0.0008246823255
-0.09154931451
1.626777205
-0.08449091723
0.2668646056
1.563844147
0.06219573691
0.5451105709
1.495637322
0.04701741987
0.7561784293
1.137431704
0.1288313382
0.9125890656
0.7658293808
0.1317056959
1.061151994
0.1716044004
0.1591439413
1.191217332
-0.4094859358
0.1454525558
1.269729046
-1.070542647
0.12326687
1.232721346
-1.594858582
0.07708723084
1.047738275
-2.046538935
0.01867520711
0.6698492986
-2.237697054
-0.04486275537
0.1309843054
-2.264303025
-0.09316023844
-0.4983008328
-2.004440434
-0.1319714104
-1.096935581
-1.605871164
-0.1216236748
-1.533963893
-1.004236134
-0.09222090897
-0.3759799054
-0.03836458083
-1.26528828
0.3280915278
-0.1099668976
-1.115279212
0.6967722226
0.01895037422
-0.7955198551
1.244627915
-0.1502386191
-0.4539495004
1.469867259
0.004891628484
-0.08761019168
1.741827332
-0.08051712125
0.1950865263
1.666057315
0.06840894858
0.3995200714
1.610281601
0.04729001776
0.5408164279
1.22509091
0.1329843327
0.6415492792
0.8478683492
0.1214970099
0.7540803209
0.21789173
0.1635623958
0.8835836166
-0.3724306651
0.1293773254
0.9963652619
-1.068694659
0.1378013928
1.027520022
-1.599472105
0.08622937913
0.9395618898
-2.069263102
0.04667899076
0.6744738329
-2.255097667
-0.01903058509
0.2457567629
-2.291906411
-0.06329304971
-0.285188019
-2.024597391
-0.1067850566
-0.8113421865
-1.62798037
-0.1013135822
-1.198891242
-1.012881797
-0.07979899547
-0.3818373427
-0.03326653546
-1.016101338
0.331813769
-0.1093240514
-0.8994978538
0.6535474156
0.02633830701
-0.6347067477
1.217266544
-0.1449346309
-0.3634274847
1.41333994
0.01209959819
-0.07603523567
1.707680104
-0.07460006222
0.1266818771
1.619822844
0.07370943268
0.2526451411
1.589609214
0.05978455685
0.3208213195
1.210316832
0.1375237917
0.3621346007
0.8667877383
0.1400640435
0.4380949747
0.2609427689
0.167579871
0.5604795308
-0.2782540747
0.1573683647
0.7097775024
-0.940821062
0.1507630914
0.8108315345
-1.423015808
0.1189773404
0.8233111421
-1.866816994
0.07127135444
0.6742517381
-2.026749233
0.01406850985
0.3582271278
-2.073491248
-0.03692598599
-0.07345433104
-1.822858338
-0.08127338019
-0.5242780675
-1.476495334
-0.0832487203
-0.8601818354
-0.9098040073
-0.06812072914
-0.3476540251
-0.02861125357
-0.7790059816
0.3143014485
-0.1053881837
-0.6919285237
0.5505502294
0.03068521633
-0.4801846314
1.096293666
-0.1380256027
-0.2759090304
1.236325416
0.01612620822
-0.06558305076
1.541271775
-0.0733575505
0.05879170124
1.440081891
0.07582930455
0.1078093427
1.451397404
0.05564988697
0.1088731709
1.102501034
0.138434561
0.0971649145
0.8367537592
0.1232840131
0.1412415436
0.2989436545
0.1656362776
0.2669323927
-0.1251676397
0.1226315564
0.45232502
-0.7053187649
0.153454147
0.6202300069
-1.084022363
0.1118559622
0.7233472926
-1.473889023
0.08405566777
0.6772077834
-1.589669437
0.02385303406
0.4628960121
-1.651242927
-0.02185364419
0.1203574711
-1.43477452
-0.06902783781
-0.2642287919
-1.185286643
-0.07254748921
-0.5556003584
-0.7149770808
-0.06143869623
-0.2827167181
-0.02552936461
-0.5676135544
0.2820969984
-0.1028841944
-0.504184978
0.4052877509
0.03669905392
-0.3372733665
0.9072901049
-0.1305901605
-0.1907839717
0.9699584273
0.02188087153
-0.04683738518
1.274671104
-0.0675802655
0.008815501596
1.158607989
0.0779722047
-0.01208419475
1.220786306
0.06472528151
-0.06696260048
0.919144781
0.1389580903
-0.1237256508
0.7594683678
0.139804098
-0.1047123206
0.3269019247
0.1631736859
0.01638694953
0.05329824264
0.1516914688
0.2320683348
-0.3980911915
0.1515089501
0.4552457271
-0.6435341665
0.1272299187
0.6337063248
-0.9531102395
0.08582783805
0.6733028064
-1.017263035
0.03260592942
0.5423472169
-1.096310348
-0.01915844537
0.2722271432
-0.9330015689
-0.06496700436
-0.05983812054
-0.8008892121
-0.06989826213
-0.3140508774
-0.4639313839
-0.0600183684
-0.1995894554
-0.02372936013
-0.4022599846
0.2429485829
-0.09767202419
-0.3552746145
0.2424323118
0.03852370584
-0.2235319935
0.6874123032
-0.1226074439
-0.1215931362
0.6615001668
0.02474772155
-0.03123444979
0.9588091611
-0.06546264289
-0.03076273987
0.8244105964
0.07753591442
-0.09984794839
0.9430236227
0.05826798812
-0.2028021042
0.6923233779
0.135833618
-0.2866558633
0.6572939321
0.1244406183
-0.2880084359
0.3454790682
0.1554551955
-0.1582963579
0.2446736127
0.1266475447
0.08189166184
-0.06239657179
0.1402762476
0.3442921829
-0.1584171149
0.1046883293
0.5734155585
-0.3801149884
0.07197251432
0.6692012254
-0.3898019207
0.01504308657
0.5932221491
-0.4923409157
-0.03204956478
0.3690497379
-0.389702059
-0.07639832192
0.07440959712
-0.3845045095
-0.0782667208
-0.1576855467
-0.1948748319
-0.06449241198
-0.1114309358
-0.02523600911
-0.2823199215
0.2038232827
-0.093090101
-0.2444773691
0.079344777
0.04116910752
-0.1365993617
0.4653001887
-0.1127960519
-0.06420602687
0.3482214195
0.02991433483
-0.01142339291
0.6357517389
-0.05645444997
-0.04788889274
0.4807816351
0.07895872103
-0.1500383982
0.6509437533
0.06312814246
-0.2806432773
0.457908503
0.1330488515
-0.3816439066
0.5407953311
0.1312587326
-0.3915961311
0.3522885791
0.1491452306
-0.2640280336
0.4155505368
0.1350409138
-0.007135902249
0.2528923347
0.1225068943
0.2717299766
0.2961478225
0.09187592021
0.5285322954
0.1562831737
0.04558792888
0.6544158718
0.194983907
-0.009205925508
0.6071773494
0.07280989108
-0.05791781463
0.4078346734
0.1150044632
-0.098504336
0.1347716841
-0.001219118505
-0.09483149004
-0.08512373107
0.05239355042
-0.07616207456
-0.03230946346
-0.02721693292
-0.21602939
0.1711876404
-0.08694584061
-0.1802721775
-0.06387234027
0.04012257593
-0.08467722931
0.2721364597
-0.1044641639
-0.02678433929
0.07218990633
0.03178241146
0.005472617448
0.3512635428
-0.05214926668
-0.0486540142
0.1742204318
0.07734371805
-0.1657293766
0.390725264
0.05615438848
-0.3057067351
0.2454399107
0.125185361
-0.4091444403
0.4325941095
0.1165738193
-0.416890806
0.3494183571
0.1367895802
-0.2857519941
0.5508851097
0.1119099425
-0.02771468291
0.506216531
0.09899776527
0.2551207457
0.6641828853
0.05587069277
0.5131148742
0.5859883496
0.009012358813
0.6378123433
0.6573640768
-0.0477753066
0.5872345236
0.5091489745
-0.09445053506
0.3858276876
0.501785771
-0.1292900915
0.1167940885
0.2928849276
-0.1192623686
-0.1007438896
0.2396673134
-0.0895370027
0.02719395087
-0.03274267497
-0.1902024801
0.1503331741
-0.07977835994
-0.1505197657
-0.1719127753
0.03943432789
-0.05824748412
0.1331025205
-0.09173672876
-0.002374749417
-0.1353545393
0.03574798037
0.02507230223
0.14042336
-0.03933465005
-0.0321729007
-0.05989183928
0.0778249675
-0.1496153616
0.1922378546
0.0594677349
-0.2836735451
0.07858263493
0.1178422274
-0.3804858863
0.3449947568
0.1154595317
-0.3804441909
0.3367001333
0.12600613
-0.2522335216
0.637979756
0.1036318877
-0.002204982872
0.6730391062
0.07226447865
0.2638274416
0.9059090312
0.02539238436
0.5048669939
0.8606542242
-0.03071773717
0.6095834456
0.946694301
-0.08711663853
0.5399919597
0.7726358456
-0.1319525601
0.3240880293
0.7297949903
-0.1627961688
0.04658522192
0.4574090855
-0.1439958922
-0.1712269845
0.3458631077
-0.1064202722
0.05809740102
-0.03598967924
-0.2004896771
0.1446896411
-0.07291697057
-0.1539244193
-0.2311364133
0.03668474587
-0.05677640369
0.06416038581
-0.08293184121
0.006106787756
-0.2537774491
0.03693346172
0.04183329421
0.02533822246
-0.03415258219
-0.006180118024
-0.202758802
0.07543812813
-0.1096521584
0.0748367698
0.05119432668
-0.2264510127
-0.02747990865
0.1085595569
-0.3049885825
0.2879586216
0.1015112818
-0.2937243365
0.3161413018
0.1129152785
-0.1678653627
0.6743377716
0.08122135483
0.05836354391
0.7433364193
0.04560006271
0.2992803979
1.005637796
-0.01053005495
0.5056630079
0.9612357585
-0.06701091098
0.5732796807
1.043101265
-0.1221348034
0.471639765
0.8419765258
-0.1638502154
0.2294638773
0.7811895796
-0.1870129825
-0.06071249369
0.4816225315
-0.1656270906
-0.2850801521
0.3623853957
-0.1154920357
0.05768755119
-0.04142562814
-0.2213258939
0.1530685768
-0.06308896726
-0.1679905591
-0.2391482188
0.0338149505
-0.06492400289
0.06725091173
-0.06657488775
0.007500281036
-0.2767629435
0.03938305802
0.05487259508
0.009654477353
-0.018418497
0.02305225228
-0.2459827097
0.07400326216
-0.06094589672
0.04168839082
0.05373158879
-0.1537183249
-0.07214146982
0.0998284817
-0.2124555577
0.2621740697
0.09671272143
-0.1896777892
0.2894410222
0.09864526729
-0.07252651251
0.6597018261
0.06613723507
0.124955022
0.7169360094
0.01907486689
0.3309004791
0.9676606414
-0.03918047065
0.4966309844
0.8936449572
-0.098580519
0.5258564713
0.9530171472
-0.1524475308
0.3932020978
0.7246332488
-0.1881469527
0.1306382205
0.6628747101
-0.2093352157
-0.1684247239
0.3700380565
-0.1791041602
-0.3937925109
0.2919870592
-0.1266033662
0.02661896185
-0.04170312502
-0.2487076639
0.17608649
-0.05577846589
-0.1894114035
-0.2024887301
0.03120685765
-0.08023918769
0.1376325487
-0.05747615525
0.002238559411
-0.215143974
0.03995433787
0.06401444262
0.08494161354
-0.01511259176
0.05154751368
-0.1997469866
0.06991901189
-0.008306967166
0.08568578037
0.04321623267
-0.07443806841
-0.06072110565
0.09028142169
-0.1100555031
0.2650558811
0.08096695899
-0.07694716297
0.2561623302
0.08558610294
0.02684727649
0.5976820519
0.04774913093
0.1920399233
0.6064348686
0.0006710394549
0.3577158151
0.8133131214
-0.05777412422
0.4786496911
0.687821547
-0.1148854628
0.4686725944
0.7102642719
-0.1622445995
0.3099944782
0.4558377445
-0.1955261337
0.03099160612
0.4039785322
-0.2089775141
-0.2677750979
0.1497982047
-0.181282928
-0.491485619
0.1491601213
-0.12254367
-0.02839522709
-0.04424279381
-0.2571249348
0.2083853243
-0.04317784926
-0.195568327
-0.1337517049
0.02719879315
-0.08862935865
0.2533373168
-0.03798505101
-0.00205397092
-0.09103867823
0.03969516278
0.06546881674
0.2218944071
0.001454161453
0.07018462805
-0.08652824231
0.06469723739
0.03179528772
0.1831068726
0.04791088409
-0.01170316993
-0.006094852094
0.07882793758
-0.03084482155
0.2867896069
0.07523638508
0.007058184609
0.2200783408
0.07040124924
0.09201163893
0.5033038289
0.03584072345
0.2256738098
0.4397009422
-0.0138386789
0.3530975943
0.58167764
-0.06982174612
0.4358277879
0.3906509337
-0.1230326492
0.4014896276
0.3700763686
-0.167267249
0.2345603827
0.09034466523
-0.1918973451
-0.03564276685
0.05605909063
-0.2057572214
-0.3193573945
-0.1403844543
-0.171728229
-0.5266174866
-0.03829034587
-0.1202761208
-0.09910060065
-0.0394323201
-0.2462366424
0.2462963631
-0.0360720295
-0.1878588763
-0.05184730486
0.02479526618
-0.08892573045
0.3897039875
-0.03145713391
-0.006013434545
0.05914369371
0.03686552814
0.06242185091
0.3880535255
-0.001615429868
0.07762407314
0.05460989534
0.05570018477
0.05883719682
0.3066240355
0.03233295852
0.03318254587