/*--------------------------------*- C++ -*----------------------------------*\
| =========                 |                                                 |
| \\      /  F ield         | OpenFOAM: The Open Source CFD Toolbox           |
|  \\    /   O peration     | Version:  5.x                                   |
|   \\  /    A nd           | Web:      www.OpenFOAM.org                      |
|    \\/     M anipulation  |                                                 |
\*---------------------------------------------------------------------------*/
FoamFile
{
    version     2.0;
    format      ascii;
    class       volScalarField;
    location    "2.8";
    object      rho;
}
// * * * * * * * * * * * * * * * * * * * * * * * * * * * * * * * * * * * * * //

dimensions      [1 -3 0 0 0 0 0];

internalField   nonuniform List<scalar> 
30538
(
1.282456723
1.289379289
1.289269953
1.289153165
1.289107724
1.289121212
1.28918367
1.289274511
1.289380881
1.28948303
1.289579608
1.289670231
1.289763904
1.289860803
1.289954038
1.290023863
1.290057609
1.290033291
1.28997177
1.292038226
1.282471199
1.289393315
1.289285955
1.289170914
1.289125853
1.289138148
1.289198248
1.289285897
1.289389247
1.289488778
1.289583525
1.289672967
1.289766111
1.289862692
1.289955354
1.290024783
1.290057938
1.290034462
1.289975876
1.292051417
1.282501178
1.289402534
1.289298946
1.289187186
1.289142774
1.289152649
1.289208209
1.289289627
1.289386944
1.289481676
1.289573006
1.289660596
1.289752831
1.289848841
1.289940506
1.290009201
1.290041084
1.29001924
1.289964644
1.292069339
1.282543607
1.289416453
1.289318409
1.289211275
1.289167542
1.289173823
1.28922255
1.289295096
1.28938387
1.289471789
1.289559058
1.289644394
1.289735954
1.289831034
1.289921347
1.289988673
1.290019213
1.289999195
1.289949827
1.292089357
1.282640649
1.289435661
1.289344723
1.289243192
1.289200155
1.289201262
1.289241194
1.289302481
1.289380927
1.289460561
1.28954369
1.289627054
1.289718693
1.289812371
1.289900807
1.289965915
1.289995244
1.289976587
1.289932949
1.292116816
1.28274907
1.289460009
1.289377866
1.289282686
1.289239766
1.289234573
1.289263785
1.289312558
1.289379018
1.289450119
1.289529526
1.289611598
1.289703892
1.28979651
1.289882128
1.289944183
1.289971745
1.289953855
1.28991565
1.29213627
1.282937784
1.289489174
1.28941686
1.289328474
1.289285363
1.289273031
1.289290893
1.289325552
1.289380366
1.289442817
1.289519642
1.289601189
1.289694922
1.289786401
1.289869035
1.289926877
1.289951488
1.289933971
1.289899612
1.292142187
1.283130139
1.289521121
1.28945969
1.289378559
1.289334982
1.289315358
1.289321335
1.289342513
1.289385979
1.289441155
1.289516126
1.289598555
1.289693732
1.289784168
1.289863149
1.289915995
1.289936592
1.289918627
1.2898864
1.292130904
1.283429028
1.289554213
1.289503368
1.289429727
1.289385882
1.289359113
1.289354245
1.289364346
1.289397203
1.289447304
1.289521341
1.28960525
1.289701734
1.289790124
1.289864511
1.289911359
1.289927062
1.289907578
1.289876058
1.292081479
1.283711389
1.289586068
1.28954519
1.289479093
1.289435129
1.289402294
1.289388795
1.289389557
1.289414321
1.289461375
1.289535473
1.289621411
1.289718283
1.289804064
1.289872529
1.289912079
1.28992204
1.289900255
1.289868548
1.292022115
1.284125987
1.289616335
1.289583959
1.289525385
1.289481998
1.289444559
1.289424673
1.289418319
1.289437605
1.289482965
1.289558402
1.289646064
1.289742379
1.289824404
1.289886104
1.28991706
1.289920317
1.289894904
1.289862438
1.291893794
1.284504865
1.289642961
1.289617708
1.289566446
1.289524219
1.289484283
1.289460343
1.289449874
1.289466154
1.289511124
1.28958791
1.289676695
1.289770772
1.289847906
1.289901513
1.289923846
1.289920364
1.2898913
1.289857457
1.291782279
1.285038386
1.289665921
1.289645832
1.289601401
1.289561289
1.289520909
1.289495536
1.289483605
1.289499375
1.289544248
1.289621416
1.289709409
1.289799291
1.289870016
1.289914597
1.289928207
1.289918382
1.289886164
1.289851504
1.291571747
1.285511037
1.289684967
1.289668597
1.289630378
1.289593406
1.28955469
1.289529872
1.289519144
1.289535514
1.289580246
1.289655641
1.289740004
1.289823509
1.289886755
1.289922022
1.289927646
1.289912468
1.289878281
1.289844042
1.2914216
1.286143411
1.289701225
1.289686923
1.289654255
1.289621621
1.289586178
1.289564063
1.289555653
1.289573437
1.289616572
1.289687288
1.289765215
1.289840248
1.289894946
1.289921442
1.289920548
1.289901424
1.289867459
1.289834596
1.291140003
1.286686265
1.289714297
1.289701609
1.289674349
1.289646532
1.289616285
1.289597678
1.289592668
1.289610753
1.289650879
1.2897138
1.289782838
1.289847437
1.289892679
1.289911347
1.289905872
1.289884502
1.289852782
1.289823153
1.290966538
1.287385793
1.289725826
1.289714317
1.289692454
1.289670101
1.289645862
1.289631556
1.289629658
1.289646639
1.289681424
1.289734315
1.289791869
1.289844225
1.289879488
1.289891481
1.289883895
1.289863036
1.289835872
1.289810435
1.290625774
1.287977605
1.289736118
1.289726452
1.289710349
1.289693936
1.289676328
1.289666427
1.28966655
1.289680702
1.289707871
1.289748207
1.289791662
1.289830156
1.289855026
1.289862259
1.289855064
1.28983731
1.289816393
1.289796844
1.290442849
1.288730171
1.289738166
1.289729884
1.289704034
1.28969708
1.289673745
1.289678354
1.289676009
1.289698867
1.289717677
1.289751307
1.289778032
1.28980652
1.289821741
1.289833591
1.289824591
1.289818222
1.289796867
1.289785728
1.290078245
1.290257441
1.285968499
1.288005593
1.283877742
1.286180021
1.283044078
1.285578451
1.283590175
1.286270219
1.285186974
1.287932891
1.287285963
1.289920916
1.289138289
1.291469135
1.290124632
1.292018446
1.289976079
1.291480094
1.289128541
1.28098706
1.28938951
1.289297074
1.289185498
1.289142549
1.289158173
1.289219987
1.289310033
1.289414912
1.289516746
1.289612561
1.289700617
1.28978729
1.289872693
1.289953043
1.290012082
1.290038045
1.290011635
1.289965518
1.292775144
1.280999633
1.28940311
1.289312245
1.289202346
1.289159938
1.289174819
1.289234833
1.289322026
1.289424061
1.289523175
1.289616984
1.289703822
1.289789895
1.289875028
1.289954935
1.290013591
1.290039398
1.290013896
1.28996981
1.292799521
1.281025909
1.289411303
1.289323791
1.289217072
1.289175669
1.289188936
1.289245168
1.28932676
1.28942335
1.289517348
1.289607602
1.289692256
1.289777364
1.289862031
1.28994117
1.289999334
1.29002431
1.290000635
1.289959874
1.292835401
1.281067763
1.289423691
1.28934123
1.289239112
1.289198894
1.28920941
1.289259801
1.28933344
1.289422058
1.2895092
1.289594952
1.289676879
1.289761178
1.289845203
1.289923187
1.289980486
1.290004637
1.289983092
1.289946643
1.29288027
1.281160155
1.289440777
1.289364867
1.289268484
1.289229476
1.289235803
1.289278403
1.289341978
1.2894207
1.289499661
1.289580685
1.289660009
1.289744063
1.289827177
1.289903702
1.289959468
1.289982945
1.289963172
1.289931392
1.292931552
1.281280623
1.289462599
1.289394739
1.289304962
1.289266889
1.289267723
1.289300759
1.289352417
1.289420034
1.289490519
1.289567104
1.289644396
1.289728784
1.289810986
1.289885727
1.289939273
1.289961664
1.289942932
1.28991544
1.292973424
1.281477986
1.28948906
1.289430213
1.289347528
1.289310039
1.289304322
1.28932676
1.289365043
1.289421521
1.289483568
1.289556733
1.289632798
1.289718111
1.28979958
1.289872369
1.28992285
1.289943051
1.289924982
1.289900458
1.292993841
1.281708926
1.289518646
1.289469572
1.289394245
1.289356866
1.289343997
1.289355671
1.289380334
1.289426224
1.2894808
1.289551672
1.289627564
1.289713943
1.289794782
1.28986514
1.289911866
1.289928889
1.289910848
1.289887573
1.292985722
1.282044413
1.289549939
1.289510244
1.28944216
1.289404723
1.2893847
1.289385956
1.289399454
1.289434933
1.289484271
1.289553313
1.289630164
1.289717509
1.289796855
1.289863942
1.289906096
1.289919209
1.289900167
1.289877059
1.292928079
1.282403621
1.289581102
1.289549874
1.2894887
1.289450976
1.289424667
1.289416976
1.28942138
1.289448487
1.289494268
1.289562719
1.289640939
1.289728858
1.289805807
1.289868135
1.289904604
1.289913171
1.289892332
1.28986882
1.292842208
1.282887385
1.2896116
1.289587342
1.289532662
1.289494916
1.289463427
1.289448852
1.289446156
1.289467131
1.289510654
1.289579789
1.289659379
1.289746877
1.289820719
1.289877016
1.289905911
1.289909237
1.289885871
1.289861413
1.292675994
1.283378986
1.289639529
1.28962059
1.289571934
1.289534502
1.289499722
1.289480526
1.28947329
1.289490435
1.28953283
1.289602979
1.289683568
1.289769015
1.289838332
1.289887514
1.289909029
1.289906845
1.289880689
1.289854671
1.292508761
1.284009776
1.289664085
1.289648717
1.289605605
1.289569222
1.289533196
1.289511825
1.289502427
1.289517954
1.289559737
1.289630064
1.289710282
1.289791859
1.289855133
1.289896106
1.289909976
1.289902642
1.289874303
1.289847162
1.292230499
1.284619177
1.289684561
1.289671589
1.289633673
1.28959944
1.289564419
1.289542823
1.289533596
1.289548712
1.289589831
1.28965862
1.289735892
1.289811665
1.289867997
1.289900397
1.28990703
1.289895346
1.289865829
1.289838505
1.292005737
1.285369008
1.289701944
1.289689953
1.289656938
1.28962617
1.28959375
1.289574163
1.289566259
1.289581926
1.289621262
1.289686147
1.289757651
1.289825653
1.289874251
1.289898538
1.289899171
1.289884421
1.289855128
1.289828712
1.291636747
1.286060196
1.289716076
1.289704634
1.289676858
1.289650134
1.289622328
1.289605554
1.289600475
1.289615854
1.289652266
1.289710188
1.28977358
1.289832086
1.28987218
1.289889249
1.289885569
1.289869048
1.289841812
1.289817688
1.291381533
1.286888214
1.289728463
1.289717455
1.289694998
1.289673366
1.289650984
1.289637964
1.289635398
1.289649684
1.28968118
1.289729786
1.289782764
1.289830276
1.289861378
1.289872287
1.289866332
1.28985026
1.289826989
1.289805977
1.290945955
1.287632085
1.289739281
1.289729635
1.289713049
1.289696904
1.289680691
1.289671557
1.289670933
1.289682812
1.289707387
1.289744465
1.28978454
1.2898194
1.28984129
1.289847737
1.289841834
1.289828194
1.289810393
1.289793921
1.290682728
1.288516927
1.289740814
1.289730602
1.289703555
1.289694526
1.289672663
1.289676881
1.289676123
1.289698205
1.289717109
1.289749548
1.289774523
1.289801886
1.289815394
1.289830156
1.289820313
1.289818345
1.289795712
1.28978677
1.290216613
1.289932403
1.285662268
1.287179853
1.283113792
1.284948077
1.282058355
1.284261711
1.282693261
1.285285126
1.284632182
1.287530347
1.287149397
1.29012736
1.289334561
1.292131494
1.29041238
1.292823874
1.290076475
1.292118538
1.288937459
1.279247217
1.289410549
1.289348171
1.289249857
1.289215151
1.289235486
1.289297231
1.28938514
1.289486725
1.289584771
1.289675882
1.289755431
1.289827818
1.289893097
1.289951744
1.28999287
1.290005639
1.28997522
1.289946263
1.294595052
1.279257779
1.289423461
1.289361985
1.289265246
1.289231273
1.289251539
1.2893121
1.289397737
1.289496661
1.289591828
1.289680765
1.289759067
1.289830806
1.289896064
1.289954442
1.289995575
1.290008525
1.289979143
1.289952119
1.294630475
1.279277146
1.289430029
1.289370983
1.289277069
1.289244608
1.28926435
1.289322352
1.289403211
1.289497342
1.289587166
1.289672355
1.289748104
1.289818861
1.289883865
1.289942118
1.289983127
1.289996283
1.289968826
1.28994408
1.294705957
1.279314558
1.289440065
1.289384781
1.289295132
1.28926435
1.289282825
1.289336376
1.289410617
1.289497453
1.289580726
1.289660783
1.289733234
1.289802799
1.289867624
1.289925739
1.289966869
1.289979938
1.28995519
1.289933355
1.29477658
1.279408302
1.289454029
1.289403911
1.289319681
1.289290832
1.289306417
1.289353986
1.289419491
1.289497675
1.289572667
1.289647512
1.289716154
1.289785185
1.289849577
1.289907623
1.28994848
1.289961871
1.289939537
1.289920968
1.294879447
1.279529774
1.289472096
1.289428509
1.289350744
1.289323506
1.289334854
1.289374379
1.289429685
1.289497581
1.28956426
1.289633463
1.289699079
1.289767759
1.289832112
1.289889871
1.289930142
1.2899436
1.289923176
1.289907526
1.294940764
1.279757708
1.289494706
1.28945838
1.289387533
1.289361779
1.2893671
1.289397777
1.289440974
1.289498817
1.289556699
1.289621775
1.289684127
1.289753527
1.289817751
1.289875165
1.289914143
1.289926941
1.289907956
1.289894294
1.294983988
1.280003839
1.289520568
1.289492167
1.289428385
1.289403153
1.28940188
1.289422576
1.289453436
1.289501063
1.289551247
1.289612197
1.289673454
1.289743433
1.28980803
1.289864592
1.289901889
1.289913186
1.289895363
1.289882245
1.294969102
1.280415536
1.289549219
1.289527875
1.289470705
1.289445466
1.28943701
1.289448441
1.289467404
1.289505962
1.289550135
1.289608432
1.289668707
1.289739763
1.289803616
1.289858852
1.289893473
1.289902791
1.289884839
1.289871827
1.294869519
1.280807426
1.289578433
1.289563525
1.289512384
1.289486308
1.28947126
1.289473515
1.289483712
1.289513098
1.289553633
1.289609696
1.289670768
1.289741767
1.289804226
1.289856491
1.289887944
1.289894628
1.28987597
1.289862561
1.294730096
1.281430984
1.289608697
1.289598177
1.289552273
1.289525164
1.289504202
1.289498766
1.289501511
1.28952427
1.289561984
1.289617938
1.289679592
1.289750121
1.289809264
1.289857054
1.289883401
1.289887086
1.28986757
1.289853249
1.294444622
1.281973053
1.289636699
1.289629515
1.289588184
1.289559818
1.289534778
1.289523181
1.289520728
1.289538549
1.289574851
1.289631096
1.289693644
1.289762054
1.289817346
1.289859243
1.289880098
1.289880272
1.289859455
1.289843897
1.294181109
1.282801462
1.289662625
1.289656424
1.28961918
1.289590353
1.289562833
1.289547639
1.28954145
1.289556715
1.289591743
1.289648109
1.289710577
1.289775549
1.289825317
1.289860439
1.289875282
1.289872215
1.289850743
1.289833886
1.293710474
1.283476441
1.289683736
1.289678261
1.289644912
1.289616711
1.289589059
1.289571953
1.289564335
1.289577884
1.289611884
1.289667285
1.289728028
1.289787773
1.289831549
1.289859256
1.289868322
1.289862387
1.289840865
1.289823793
1.293358809
1.2844682
1.289702346
1.289695681
1.289666194
1.289640276
1.289613966
1.289597499
1.289589666
1.289602435
1.28963451
1.289687295
1.289743888
1.289797252
1.289834507
1.289855195
1.289859069
1.28985106
1.289830223
1.289813546
1.292745814
1.285235285
1.289716936
1.289709548
1.289684544
1.289661671
1.289638617
1.289623825
1.289617674
1.289629056
1.289658638
1.28970627
1.28975668
1.289802379
1.289832833
1.289847209
1.28984715
1.289838062
1.28981877
1.28980334
1.292349993
1.286326786
1.289730182
1.289721699
1.289701397
1.289682726
1.289663946
1.289652014
1.289647554
1.289657762
1.289683129
1.28972328
1.28976563
1.289802753
1.289826033
1.289835264
1.289832549
1.289823665
1.289807372
1.289793404
1.291650399
1.287148175
1.289741138
1.289733066
1.289718091
1.289704029
1.289690288
1.289681533
1.289678936
1.289687235
1.289707056
1.289737662
1.289769996
1.289797315
1.289813573
1.28981881
1.289815369
1.289807895
1.289795579
1.28978416
1.291243639
1.288302976
1.28973837
1.289732805
1.289696975
1.289697109
1.289667589
1.289681339
1.289674937
1.28970058
1.289715938
1.289745961
1.289766414
1.289789891
1.28980255
1.289815016
1.289810005
1.289807915
1.289790816
1.289780831
1.290504383
1.290519249
1.284231279
1.287215009
1.281167487
1.284548103
1.280094074
1.283775509
1.281306416
1.285058809
1.284135093
1.28775507
1.287617597
1.290824517
1.290605727
1.293090207
1.292067211
1.293603158
1.29148001
1.292287996
1.289776776
1.274512975
1.289416213
1.28942387
1.28934751
1.289327968
1.289354946
1.289418183
1.289503741
1.289598706
1.289689027
1.289768507
1.28983261
1.289884845
1.289926384
1.289961142
1.289981365
1.289976812
1.289941844
1.28993354
1.297666858
1.274497278
1.289428471
1.28943632
1.289361268
1.289342722
1.289369972
1.289432337
1.289515904
1.289608378
1.289695794
1.289773189
1.289835983
1.289887627
1.289929254
1.289964267
1.289984903
1.289981014
1.289947259
1.289941604
1.297754724
1.27445899
1.289433504
1.289442712
1.289370027
1.289353265
1.289380797
1.289441117
1.289520542
1.289608523
1.289690907
1.289764519
1.289824614
1.289875087
1.289916759
1.289952427
1.289974069
1.28997143
1.289939836
1.28993555
1.297919394
1.274439839
1.289441505
1.289452864
1.289383643
1.289369031
1.289396166
1.289453158
1.28952679
1.289608527
1.28968425
1.289752646
1.289809106
1.289858265
1.289900042
1.28993662
1.289959766
1.289958839
1.289930048
1.289927292
1.29811934
1.274460021
1.289452967
1.289467372
1.28940265
1.289390179
1.289415772
1.289467959
1.289534334
1.289608131
1.289676013
1.289738325
1.289790692
1.289838826
1.289880947
1.289918613
1.28994329
1.289944036
1.289918521
1.289917266
1.29834715
1.274562531
1.289468534
1.289486766
1.289427423
1.289416787
1.289439409
1.289485222
1.289542822
1.289607616
1.289666672
1.289722707
1.289770799
1.289818399
1.289861177
1.289900048
1.289925782
1.289928245
1.289905681
1.289905815
1.298531392
1.274778683
1.289488614
1.289511101
1.289457623
1.289448121
1.289466362
1.289504303
1.289551684
1.289606748
1.289656798
1.289706941
1.289750893
1.289798565
1.289842409
1.289882508
1.289908909
1.289912743
1.289892709
1.289894135
1.298653284
1.275118652
1.289512716
1.289539482
1.289491799
1.289482537
1.289495178
1.28952432
1.289560568
1.289606269
1.289647964
1.28969228
1.28973333
1.289781425
1.289826484
1.289867547
1.289894086
1.289898617
1.289881174
1.289882606
1.29866716
1.275631843
1.289540029
1.289569978
1.289527765
1.289517626
1.289524018
1.289544112
1.289569827
1.289605993
1.28964135
1.289680535
1.289719876
1.289768561
1.289814032
1.28985525
1.289881419
1.289886156
1.289870128
1.289871569
1.298528263
1.276267862
1.289569349
1.289600968
1.28956382
1.289551779
1.289551786
1.28956281
1.289579479
1.289606795
1.289637164
1.28967335
1.289711571
1.289759745
1.289804882
1.289845158
1.289870262
1.289874578
1.289859309
1.289860061
1.29826856
1.277127235
1.289600278
1.289631314
1.289598366
1.289584115
1.289577635
1.28958034
1.289589117
1.289609329
1.289636262
1.289670976
1.289708529
1.28975542
1.289798424
1.289836041
1.289859137
1.289862563
1.289848217
1.289848171
1.297800784
1.278057931
1.289630203
1.289658776
1.289629507
1.289612778
1.289600693
1.289596521
1.289598497
1.289614102
1.289638924
1.289673414
1.289710835
1.289755289
1.289794443
1.289827889
1.289847423
1.28984994
1.289836
1.289834961
1.297279919
1.279231688
1.289657883
1.289682046
1.289655846
1.289637399
1.2896212
1.289611627
1.289608541
1.289621267
1.28964503
1.289679595
1.289716614
1.289757633
1.289791736
1.289820106
1.289836057
1.289837107
1.289823803
1.289821795
1.296505239
1.280390984
1.289681254
1.289700471
1.289676928
1.289658036
1.289639377
1.289626517
1.289620144
1.28963094
1.289654182
1.289688621
1.289724603
1.289761117
1.289789782
1.289812531
1.289824638
1.289824282
1.289811835
1.289808581
1.295809687
1.281799365
1.289701968
1.289714723
1.289693903
1.289675808
1.28965652
1.289642534
1.28963458
1.289643904
1.289666146
1.289699511
1.289733379
1.289765071
1.28978825
1.289805354
1.289813618
1.289812074
1.28980091
1.2897974
1.294815938
1.283085801
1.28971863
1.289725777
1.289708122
1.289691602
1.289673561
1.289659886
1.28965226
1.289660149
1.289680594
1.289711388
1.289742077
1.289768419
1.289786376
1.289798155
1.289803025
1.289800787
1.289791264
1.289787425
1.294059742
1.284625337
1.289733311
1.289735164
1.289720832
1.289706905
1.289691492
1.289679702
1.289673093
1.289679605
1.289696933
1.289723832
1.289749915
1.289770791
1.289783775
1.28979105
1.289793152
1.289790918
1.289783545
1.28977939
1.292940333
1.285961064
1.289744791
1.289743391
1.289732812
1.289721958
1.289710434
1.289701097
1.289696489
1.289701306
1.28971515
1.289735968
1.289756028
1.289771244
1.289779981
1.289783789
1.289784189
1.289782616
1.289777136
1.289772941
1.292201447
1.287569578
1.28973759
1.289729078
1.289689912
1.289684563
1.289656905
1.289668012
1.289668529
1.289696408
1.289714968
1.289742508
1.289757101
1.289777811
1.289786422
1.289801961
1.289796066
1.28979888
1.289781439
1.289775171
1.291028627
1.289479409
1.283101139
1.284494713
1.278491945
1.280388466
1.276682619
1.279287279
1.278268657
1.281758073
1.282356287
1.28652474
1.287394833
1.291771064
1.291608475
1.295689461
1.293430197
1.296683087
1.292110302
1.294579695
1.289197511
1.270108438
1.289430718
1.289522222
1.289471952
1.289472679
1.28950804
1.289573146
1.289653559
1.289738285
1.28981295
1.289873244
1.289914353
1.289944003
1.289963225
1.28997731
1.289979509
1.289959015
1.289919795
1.289929688
1.302605338
1.27005955
1.289442266
1.289533717
1.289484598
1.289485971
1.289521463
1.28958571
1.289664376
1.289746584
1.289818844
1.28987692
1.289917052
1.289946318
1.289965906
1.289980517
1.289983641
1.289964364
1.289926587
1.289940234
1.302753488
1.26994422
1.289445575
1.289538263
1.28949105
1.289493794
1.289529332
1.289591743
1.28966652
1.289745201
1.289812456
1.289867299
1.28990442
1.289933011
1.289952958
1.289968811
1.289973726
1.289956774
1.289921538
1.289935325
1.303102765
1.269844326
1.289451904
1.289545587
1.28950113
1.289505356
1.289540617
1.289600075
1.28967016
1.289742686
1.289803988
1.289852982
1.289887275
1.289914429
1.289935368
1.289952763
1.289960229
1.28994626
1.289914791
1.289928274
1.303452344
1.269779338
1.289461311
1.289556484
1.28951541
1.289521288
1.28955514
1.289610732
1.289674434
1.289740703
1.289793373
1.28983719
1.289865871
1.289892454
1.289913996
1.289933573
1.289943962
1.289933528
1.289906345
1.28991953
1.303930267
1.269815325
1.289475153
1.289571399
1.289534561
1.289541481
1.289572961
1.28962283
1.289679554
1.289736763
1.28978135
1.289816335
1.289841831
1.289867063
1.289890424
1.289912109
1.28992546
1.289918589
1.289896257
1.28990886
1.304252479
1.270031237
1.289494091
1.289590939
1.289558737
1.289566221
1.28959368
1.289637023
1.28968477
1.289733644
1.289767144
1.289798774
1.28981654
1.289842055
1.289866429
1.289890829
1.289906265
1.28990283
1.289884804
1.289896797
1.304519339
1.270369029
1.289516997
1.289614327
1.289586826
1.289593668
1.289616296
1.289651395
1.289689704
1.289727933
1.289754666
1.289775881
1.289792343
1.289817271
1.289843747
1.28986976
1.289887545
1.289886339
1.289872425
1.289883503
1.304558538
1.271037872
1.289544699
1.289639895
1.28961669
1.289621871
1.289638834
1.289665808
1.289694055
1.289722911
1.28974192
1.28975784
1.289770986
1.289796462
1.289822964
1.289850167
1.289868669
1.289869771
1.289858319
1.289870032
1.304329771
1.271767176
1.289573461
1.289665861
1.289646783
1.289649032
1.289660316
1.289678049
1.28969736
1.289716604
1.289730133
1.289741102
1.289753548
1.289776358
1.28980392
1.289830675
1.289849754
1.289852306
1.289843432
1.289854722
1.303925012
1.272976462
1.28960673
1.289690948
1.289675284
1.28967448
1.289679242
1.289688793
1.289698992
1.289711825
1.289720688
1.289729588
1.289740006
1.289761379
1.289786274
1.289812492
1.2898309
1.289834604
1.289827583
1.289839231
1.303085795
1.274088978
1.289635885
1.289712769
1.289700138
1.289695501
1.289694556
1.289696046
1.289699108
1.289706811
1.289714235
1.289721652
1.289729929
1.289747828
1.289770366
1.289794067
1.289811852
1.289815931
1.289810936
1.289822664
1.302253269
1.275798016
1.289665928
1.289730477
1.289718816
1.289712218
1.2897054
1.289701167
1.289698313
1.289703685
1.289709886
1.289717528
1.289724618
1.289739026
1.289757552
1.289778682
1.289794253
1.289798378
1.289794523
1.289807407
1.300861066
1.277195783
1.289688967
1.289743308
1.289732764
1.289724121
1.289713489
1.28970451
1.289698344
1.289701725
1.289708254
1.289716344
1.289723114
1.289733717
1.289748299
1.289765938
1.289779296
1.289782828
1.289780198
1.289793246
1.299755077
1.27926329
1.289712318
1.289752351
1.289742978
1.289733293
1.289720258
1.28970897
1.289700183
1.289703106
1.289709689
1.28971887
1.289724894
1.289732349
1.289742628
1.289756367
1.289767375
1.289770403
1.289768894
1.289781954
1.297997925
1.28081237
1.289728358
1.28975811
1.289750071
1.289740045
1.289726427
1.28971396
1.289705016
1.289707295
1.289714356
1.289723661
1.289729207
1.289733722
1.289740165
1.289749671
1.289758382
1.289761239
1.289760919
1.2897721
1.296809709
1.283047818
1.289744302
1.289761726
1.289755091
1.2897458
1.289733003
1.289721578
1.289713151
1.289715463
1.289721852
1.28973089
1.289735433
1.289737836
1.289740849
1.289746807
1.28975327
1.28975619
1.289756682
1.289765401
1.294894435
1.284652991
1.289753761
1.289763423
1.289758349
1.289750647
1.28974009
1.289730783
1.289724365
1.289726242
1.289732099
1.289739353
1.289742911
1.289743699
1.289744599
1.289747547
1.28975211
1.289754839
1.289755766
1.289761193
1.29374899
1.286953659
1.289728365
1.289738696
1.289666161
1.28969051
1.289630075
1.289674152
1.289661693
1.28970833
1.289721065
1.289744327
1.289750429
1.28976501
1.289774358
1.289785356
1.289786525
1.289785337
1.289774039
1.289768616
1.291797022
1.290590973
1.279719872
1.28416255
1.273635396
1.27887091
1.271690533
1.277557062
1.274807287
1.280851346
1.281151658
1.286908192
1.288570833
1.293522247
1.29489193
1.298357494
1.297874327
1.299002305
1.295796491
1.295205676
1.291270984
1.261093176
1.289377442
1.28963377
1.289610489
1.289634353
1.289678498
1.289742708
1.289815453
1.289883866
1.289937106
1.289971726
1.289986194
1.289993367
1.289995051
1.289991886
1.289977202
1.289946086
1.289905165
1.289930441
1.310429068
1.260939162
1.289387502
1.289644823
1.289622501
1.289646479
1.28969025
1.289753748
1.289824669
1.289891219
1.289942024
1.289974322
1.289988488
1.289995388
1.289997341
1.289994798
1.289981572
1.28995174
1.289912641
1.289943976
1.310802135
1.260581295
1.289387013
1.289648368
1.289627552
1.28965183
1.289694937
1.289756724
1.289824345
1.289887606
1.289933771
1.289962432
1.289974379
1.289980776
1.289983204
1.289981789
1.289971648
1.289944437
1.289908774
1.289937245
1.3115473
1.260239464
1.289389242
1.289654171
1.289635737
1.289659593
1.289701892
1.289761009
1.289824404
1.289882126
1.289922477
1.289945287
1.289954319
1.289959518
1.289962408
1.289962748
1.289957813
1.289934679
1.289903709
1.289927886
1.312460141
1.2598387
1.289393077
1.289662741
1.289647204
1.289670608
1.289711372
1.289766874
1.289824894
1.289875956
1.289908942
1.289926301
1.289930354
1.289934324
1.289938034
1.289940996
1.289940984
1.289922636
1.289897262
1.289915295
1.313518533
1.259689895
1.289403492
1.289674839
1.289662618
1.289685224
1.289723546
1.28977389
1.289825759
1.289868032
1.289892785
1.289903047
1.289903297
1.289905924
1.28991076
1.289916765
1.289921857
1.289908531
1.289888945
1.289900208
1.314381915
1.259713213
1.28941958
1.289690352
1.289682583
1.289703815
1.289738578
1.289782414
1.289826903
1.289858903
1.289874105
1.28992689
1.289874263
1.28987621
1.289882383
1.289891166
1.289900605
1.289891964
1.289878239
1.289882692
1.315047988
1.260131406
1.289443687
1.28970923
1.289706066
1.289725507
1.289755575
1.289792142
1.289826547
1.289848197
1.289854366
1.289853363
1.289846081
1.289846476
1.289854007
1.289865769
1.28987691
1.289873413
1.289864067
1.289863841
1.315266258
1.260927973
1.289474273
1.289729795
1.289730821
1.289748046
1.289772482
1.289800834
1.289824788
1.289836687
1.28983453
1.289828603
1.289818305
1.289817816
1.289825112
1.289838723
1.289850912
1.289851788
1.289846467
1.289845182
1.314997705
1.262116273
1.289510569
1.289750995
1.289755259
1.289769569
1.289787673
1.289807547
1.289821391
1.289824786
1.289816539
1.28980414
1.289792942
1.2897905
1.289797095
1.289810728
1.289823667
1.289828219
1.289827095
1.28982601
1.314239305
1.263816292
1.289552904
1.289770815
1.289777343
1.289788222
1.289799752
1.289811136
1.289816226
1.289813022
1.289800802
1.289784187
1.289769868
1.289765413
1.289770936
1.289783238
1.289796456
1.289803378
1.289806234
1.28981035
1.312841351
1.265754781
1.289593472
1.289786481
1.289793429
1.289801314
1.289806301
1.289810413
1.289808433
1.289801024
1.289786391
1.289767376
1.28975035
1.289742813
1.289746896
1.289757628
1.289770597
1.289778563
1.289784986
1.289794451
1.311141901
1.268251728
1.289635335
1.289797409
1.289804147
1.289807976
1.289807814
1.289805777
1.289798683
1.289789054
1.289773789
1.289753859
1.289734333
1.28972432
1.289726122
1.289735513
1.289747322
1.289755905
1.28976475
1.289782555
1.308761651
1.270709446
1.289670444
1.28980333
1.28980928
1.289809729
1.289805017
1.289798224
1.289788032
1.289777584
1.289763002
1.289743382
1.289722327
1.289711079
1.289710987
1.28971974
1.289730053
1.289737971
1.289747401
1.289769806
1.30650472
1.273721753
1.289704611
1.289805156
1.289809899
1.289807671
1.289799501
1.289789629
1.289778141
1.28976837
1.289755465
1.289737892
1.289717307
1.28970425
1.289702277
1.289709249
1.289718363
1.289725274
1.289735184
1.289761504
1.303563251
1.276374149
1.289729064
1.289803406
1.289806751
1.289802352
1.2897926
1.289781061
1.28977003
1.289761829
1.28975153
1.28973691
1.289717631
1.289703358
1.289699154
1.289704107
1.289712214
1.289718614
1.289728202
1.289753072
1.30130256
1.27958415
1.28975105
1.289798587
1.289800622
1.289795395
1.289785437
1.289774158
1.289764212
1.289758538
1.289750657
1.289739337
1.289722275
1.289708185
1.289702313
1.28970551
1.289712869
1.289718787
1.289727439
1.289750113
1.298199313
1.282247061
1.289762642
1.289790779
1.289791528
1.289786355
1.289777328
1.289768132
1.289760828
1.289757489
1.289752724
1.28974419
1.289730737
1.289718247
1.289712326
1.289713958
1.289720257
1.289725409
1.289732249
1.289748277
1.296180234
1.285483371
1.289720192
1.289726253
1.289623756
1.289636911
1.289563385
1.289611568
1.289624182
1.28968935
1.289717479
1.289741732
1.289742873
1.289757501
1.289763963
1.28977164
1.289774022
1.289765206
1.289762049
1.289756845
1.293080817
1.28878692
1.277175216
1.278955242
1.26787259
1.270547482
1.264398006
1.268370512
1.26861963
1.274480267
1.277955997
1.284940451
1.28881048
1.296128294
1.29797441
1.304653238
1.301914906
1.30628852
1.297895589
1.300339919
1.290389422
1.252204427
1.289280527
1.289743434
1.289748294
1.289791074
1.28984291
1.289903087
1.289962924
1.290013685
1.29004264
1.290051205
1.29003827
1.290025043
1.290011116
1.28999273
1.289964492
1.289926307
1.289887911
1.289908062
1.321081471
1.251841943
1.289287063
1.289754444
1.289760048
1.289802439
1.289853348
1.289912439
1.289970858
1.290019594
1.290046625
1.29005301
1.29004183
1.29002836
1.290014209
1.289995912
1.289968981
1.289932508
1.289896776
1.289923934
1.321746862
1.251109021
1.289277835
1.289757967
1.289764458
1.289806069
1.28985546
1.28991212
1.28996712
1.290013565
1.290034364
1.290039437
1.290027445
1.290015485