/*--------------------------------*- C++ -*----------------------------------*\
| =========                 |                                                 |
| \\      /  F ield         | OpenFOAM: The Open Source CFD Toolbox           |
|  \\    /   O peration     | Version:  5.x                                   |
|   \\  /    A nd           | Web:      www.OpenFOAM.org                      |
|    \\/     M anipulation  |                                                 |
\*---------------------------------------------------------------------------*/
FoamFile
{
    version     2.0;
    format      ascii;
    class       volScalarField;
    location    "2.8";
    object      T;
}
// * * * * * * * * * * * * * * * * * * * * * * * * * * * * * * * * * * * * * //

dimensions      [0 0 0 1 0 0 0];

internalField   nonuniform List<scalar> 
30538
(
274.5219195
272.9858434
272.9613909
272.9514389
272.9475326
272.9486721
272.9539889
272.9617662
272.9708823
272.9797415
272.9879562
272.9956893
273.003629
273.0119073
273.0198817
273.0258879
273.0287947
273.0266917
273.0148354
272.5423519
274.5191911
272.9840786
272.9599328
272.9501265
272.9462527
272.9473009
272.9524217
272.9599215
272.9687822
272.9773993
272.9854426
272.9931163
273.0010112
273.0092568
273.0171844
273.0231522
273.0260022
273.0239662
273.0122897
272.5390672
274.5135531
272.9845701
272.96104
272.9515217
272.9477099
272.948551
272.9532773
272.9602416
272.9686418
272.9767374
272.9845195
272.9920424
272.9998979
273.0080767
273.0159175
273.021826
273.0245586
273.0226653
273.0115856
272.5342857
274.5057218
272.9853836
272.9627205
272.9536051
272.949855
272.9503657
272.9545059
272.9607531
272.9683782
272.975857
272.983282
272.9906232
272.9984686
273.0065826
273.0142793
273.0200657
273.0227068
273.0209674
273.0106516
272.5286292
274.4867513
272.9865072
272.9649791
272.9563441
272.9526243
272.9527013
272.9561043
272.9614464
272.9681094
272.9748649
272.9819125
272.9890944
272.9969822
273.0050314
273.0125336
273.0181144
273.0206359
273.0190417
273.009587
272.5210947
274.4659246
272.9880032
272.9677927
272.9596962
272.9559988
272.955546
272.9580925
272.9622628
272.9679331
272.9739817
272.9806627
272.98776
272.9957239
273.0036423
273.0109685
273.0162537
273.0186204
273.0170866
273.008483
272.5150938
274.4284388
272.9897561
272.9711204
272.9636092
272.9598951
272.958832
272.9604208
272.9633572
272.9680434
272.9733599
272.9797949
272.9868881
272.9949549
273.0027743
273.0098337
273.0147816
273.0168837
273.015385
273.0075238
272.5120057
274.3905142
272.9917383
272.9747812
272.9678943
272.9641389
272.9624557
272.9630177
272.9648072
272.9685203
272.9732181
272.9794886
272.9866737
272.9948515
273.0025835
273.0093207
273.0138629
273.0156059
273.0140716
273.0067925
272.5128326
274.3298801
272.9936333
272.9785165
272.9722717
272.9684951
272.9662092
272.9658265
272.9666751
272.9694767
272.9737465
272.979943
272.9872505
272.9955345
273.0030929
273.0094344
273.0134665
273.014792
273.0131268
273.0063188
272.5220642
274.2726286
272.9954093
272.982094
272.9764909
272.9727097
272.969909
272.9687736
272.9688292
272.9709372
272.9749521
272.9811647
272.988634
272.9969456
273.0042821
273.0101212
273.0135251
273.0143616
273.0125007
273.0060585
272.5337215
274.1868933
272.9968176
272.985412
272.9804461
272.9767182
272.9735236
272.9718335
272.9712848
272.972927
272.9768009
272.9831358
272.9907431
272.9990027
273.0060184
273.0112819
273.0139464
273.0142108
273.0120413
273.0059226
272.5601579
274.1084319
272.9979654
272.9882997
272.9839524
272.9803279
272.9769188
272.9748767
272.9739783
272.9753668
272.9792088
272.9856711
272.9933607
273.0014245
273.0080225
273.0125971
273.0145208
273.0142103
273.0117305
273.0058694
272.5831274
273.9966003
272.9986323
272.9907029
272.9869362
272.983495
272.9800492
272.9778781
272.976859
272.9782062
272.9820403
272.9885474
272.9961569
273.0038578
273.0099078
273.0137124
273.0148872
273.014036
273.0112871
273.0057783
272.6269281
273.8973602
272.9990891
272.9926483
272.9894086
272.9862383
272.9829359
272.9808075
272.9798945
272.981294
272.985114
272.9914869
272.9987721
273.0059242
273.0113336
273.0143441
273.0148337
273.0135287
273.0106108
273.0055338
272.6578572
273.7638507
272.9992304
272.9942177
272.9914474
272.9886502
272.9856277
272.983728
272.9830152
272.9845369
272.988215
272.9942075
273.0009262
273.0073528
273.0120299
273.0142917
273.0142205
273.0125854
273.009683
273.0051687
272.7163524
273.649263
272.9993086
272.9954771
272.9931643
272.9907815
272.9882028
272.9866037
272.9861806
272.9877293
272.9911433
272.9964906
273.0024349
273.0079667
273.0118353
273.0134299
273.0129625
273.0111431
273.0084296
273.0045949
272.7518644
273.5013329
272.9992812
272.9965683
272.9947137
272.9928007
272.9907326
272.9895024
272.9893429
272.9907964
272.9937534
272.9982602
273.0032093
273.0076941
273.0107088
273.0117336
273.0110838
273.0093072
273.006982
273.0039672
272.822642
273.3763654
272.9993821
272.9975984
272.9962351
272.9948263
272.9933296
272.9924708
272.9924877
272.9936944
272.996009
272.9994509
273.0031841
273.0064834
273.0086073
273.0092303
273.0086125
273.0071005
273.0053125
273.0031621
272.8599668
273.217473
273.0011857
273.0005126
273.0028986
273.0014427
273.0031288
273.000622
273.0014016
272.9995609
273.0007205
273.0011061
273.0034085
273.0043877
273.0057159
273.0043307
273.0048214
273.0024899
273.0030952
273.0015315
272.9356759
272.8949442
273.8042411
273.3702842
274.2483342
273.756328
274.4245035
273.8828866
274.3073832
273.7368146
273.9693151
273.3877556
273.527809
272.9715032
273.1387684
272.6462676
272.9298067
272.5284879
272.9584277
272.6392998
273.1352167
274.8390649
272.9885098
272.9629366
272.9533727
272.9496971
272.9510275
272.9563197
272.9640356
272.973
272.9817223
272.9898987
272.9974382
273.0048452
273.0121501
273.0190007
273.0240681
273.0263054
273.0240383
273.0107468
272.3852319
274.8366688
272.9866937
272.9614393
272.9520067
272.9483854
272.9496623
272.9547864
272.9622537
272.9709861
272.979472
272.9874819
272.9949212
273.0022721
273.0095488
273.0163675
273.0214004
273.0236131
273.0214154
273.0083726
272.379619
274.8316629
272.9871012
272.9624232
272.9532623
272.9497264
272.9508637
272.955666
272.9626542
272.9709218
272.9789701
272.9866756
272.9939293
273.0011956
273.0084323
273.0151861
273.0201737
273.022317
273.0202812
273.0077853
272.3711283
274.8237036
272.9877714
272.9639158
272.9551508
272.9517142
272.9526165
272.9569207
272.9632243
272.9708113
272.9782715
272.9855918
272.992615
272.9998123
273.0069943
273.0136525
273.0185606
273.0206339
273.0187863
273.0070241
272.3603578
274.805365
272.9886921
272.9659351
272.9576639
272.9543276
272.9548731
272.958514
272.9639518
272.9706934
272.9774529
272.9843688
272.9911702
272.9983475
273.0054512
273.0119865
273.0167606
273.018775
273.0170866
273.0061737
272.3479567
274.7815136
272.989921
272.9684858
272.9607844
272.9575259
272.9576024
272.9604285
272.9648446
272.9706325
272.9766683
272.983208
272.9898315
272.9970426
273.0040648
273.0104493
273.0150311
273.0169533
273.0153574
273.0053249
272.3373989
274.7416713
272.9913697
272.9715125
272.9644249
272.9612139
272.9607306
272.9626527
272.9659241
272.9707568
272.9760704
272.9823225
272.9888366
272.9961281
273.0030877
273.009304
273.0136254
273.0153601
273.013824
273.0045733
272.3314104
274.6950175
272.9930197
272.9748737
272.968422
272.9652185
272.9641225
272.9651235
272.9672329
272.9711573
272.9758343
272.98189
272.9883868
272.9957699
273.0026821
273.0086915
273.0126863
273.0141458
273.0126173
273.0040553
272.3316716
274.626149
272.9946228
272.9783464
272.9725207
272.9693095
272.967605
272.9677145
272.9688696
272.9719012
272.9761356
272.9820296
272.9886096
272.9960749
273.0028631
273.0085899
273.0121945
273.0133207
273.011707
273.0037465
272.3426677
274.5521934
272.9961377
272.9817323
272.9765024
272.973271
272.9710274
272.9703686
272.9707467
272.9730598
272.9769915
272.9828357
272.9895303
272.9970426
273.0036307
273.0089496
273.0120678
273.0128052
273.0110393
273.0036192
272.3598745
274.4514673
272.9973626
272.9849359
272.9802647
272.9770315
272.9743423
272.9730952
272.9728649
272.9746561
272.9783915
272.9842972
272.9911068
272.998585
273.0049077
273.0097137
273.0121834
273.012469
273.0104851
273.0035445
272.394209
274.3488164
272.9983514
272.9877805
272.9836259
272.9804202
272.9774471
272.9758066
272.9751854
272.9766508
272.9802869
272.9862838
272.9931742
273.0004811
273.0064151
273.0106127
273.0124521
273.0122651
273.0100405
273.0035621
272.428778
274.2161266
272.9989165
272.9901848
272.9865071
272.9833929
272.9803126
272.9784848
272.9776772
272.9790062
272.982587
272.9886015
272.9954581
273.0024369
273.0078528
273.0113494
273.0125357
273.0119044
273.0094924
273.0035363
272.4867062
274.0877153
272.9992408
272.9921402
272.9889077
272.9859783
272.9829829
272.9811346
272.9803428
272.9816361
272.9851586
272.9910433
272.9976488
273.0041316
273.0089529
273.0117182
273.012285
273.0112806
273.0087672
273.003434
272.533273
273.9291191
272.9992697
272.9937118
272.9908987
272.9882673
272.9854951
272.983818
272.9831397
272.9844778
272.9878459
272.9933959
272.9995086
273.0053267
273.0094843
273.0115569
273.0116134
273.0103487
273.0078501
273.0032359
272.6101883
273.782868
272.999209
272.9949685
272.9926011
272.9903163
272.9879374
272.9865013
272.9860645
272.9873817
272.9904969
272.9954515
273.0008709
273.0058745
273.0093053
273.0107617
273.0104483
273.0090355
273.0067116
273.0029088
272.6630643
273.6074622
272.999063
272.9960648
272.9941481
272.9922959
272.990377
272.9892644
272.9890451
272.990272
272.9929666
272.9971264
273.0016558
273.0057212
273.0083811
273.0093125
273.0088039
273.0074276
273.0054413
273.0025222
272.7540258
273.4500447
272.9990546
272.9971075
272.9957079
272.9943237
272.9929517
272.9921571
272.992105
272.993108
272.9952099
272.9983764
273.0018045
273.0047899
273.0066599
273.0072165
273.0067117
273.0055454
273.0040232
273.0019941
272.8085474
273.2629244
273.0009005
273.0005391
273.0030802
273.0020919
273.0037225
273.0014018
273.0016743
272.9995447
273.0002161
273.0002592
273.0022936
273.0027762
273.0039323
273.0017646
273.0027046
273.0002621
273.0017679
273.0002032
272.9059683
272.9638019
273.8695785
273.5457617
274.4116905
274.0188891
274.6356608
274.1639002
274.4992902
273.9465593
274.0874082
273.4727958
273.5561771
272.9269028
273.0960941
272.5053636
272.8678888
272.3579736
272.9366599
272.5042306
273.1755534
275.2170433
272.9938241
272.9673335
272.9589204
272.9559269
272.9576566
272.9629573
272.9704913
272.9791712
272.9875475
272.9953347
273.0021262
273.008341
273.0139347
273.0189269
273.0224496
273.0235487
273.0209466
273.0062965
271.9992553
275.2149687
272.9918749
272.9657127
272.9573954
272.9544907
272.9562299
272.9614016
272.9687322
272.9771953
272.9853411
272.9929446
272.9996311
273.0057752
273.0113559
273.016348
273.0198656
273.020959
273.0184508
273.0039198
271.991396
275.2112259
272.9920916
272.9664784
272.9584014
272.9556269
272.9573223
272.9622738
272.9691966
272.9772492
272.9849416
272.992221
272.9986916
273.0047474
273.0103074
273.0152897
273.0187958
273.0199071
273.0175671
273.0035467
271.9747467
275.203868
272.9924703
272.9676585
272.9599463
272.9573175
272.9589039
272.9634746
272.9698301
272.9772584
272.9843897
272.9912293
272.99742
273.003373
273.0089182
273.01389
273.0174069
273.0185104
273.0164036
273.0030697
271.9588223
275.184735
272.9930254
272.9692915
272.962045
272.9595814
272.9609184
272.9649794
272.9705882
272.9772748
272.9836979
272.9900928
272.9959605
273.0018651
273.0073744
273.0123391
273.0158322
273.0169669
273.0150647
273.0025404
271.9359152
275.1600453
272.9938338
272.9713913
272.9647012
272.9623739
272.9633467
272.9667232
272.9714574
272.9772631
272.9829791
272.9888888
272.9945009
273.0003765
273.0058807
273.0108193
273.014261
273.0154072
273.013665
273.0020316
271.921636
275.1129294
272.9948058
272.973941
272.9678453
272.9656427
272.9660999
272.9687211
272.9724231
272.9773653
272.9823335
272.9878859
272.993225
272.9991604
273.0046519
273.0095599
273.012891
273.0139832
273.0123637
273.001625
271.911166
275.0623298
272.9960177
272.976825
272.9713381
272.9691791
272.9690725
272.9708416
272.9734866
272.9775578
272.9818664
272.9870659
272.9923134
272.9982968
273.0038211
273.0086558
273.0118431
273.0128084
273.0112874
273.0013743
271.9130603
274.9764688
272.9971466
272.9798716
272.9749582
272.9727963
272.9720754
272.9730515
272.9746787
272.9779792
272.9817691
272.9867444
272.9919094
272.9979805
273.0034432
273.0081642
273.0111238
273.0119199
273.0103901
273.0012847
271.9329356
274.8950164
272.9983418
272.9829168
272.9785255
272.9762926
272.9750074
272.9751974
272.976075
272.9785915
272.9820644
272.9868549
272.9920846
272.998149
273.0034949
273.0079632
273.0106507
273.0112218
273.0096344
273.0013061
271.9613036
274.7639202
272.9992027
272.9858766
272.9819394
272.9796178
272.9778255
272.9773573
272.9775994
272.9795467
272.9827752
272.9875629
272.9928374
272.9988619
273.0039245
273.0080121
273.0102647
273.010577
273.0089161
273.0013413
272.0204397
274.6501875
273.0000334
272.9885559
272.9850143
272.9825874
272.9804464
272.9794492
272.9792448
272.9807676
272.9838755
272.9886901
272.9940382
272.999882
273.0046158
273.0081994
273.0099818
273.0099946
273.0082221
273.0013308
272.0749462
274.4749492
273.0003095
272.9908541
272.9876664
272.9852013
272.9828474
272.9815425
272.9810184
272.982321
272.9853194
272.990146
272.9954841
273.0010376
273.0052984
273.0083002
273.0095698
273.009306
273.0074753
273.001301
272.1729862
274.3323173
273.0005204
272.9927201
272.9898673
272.9874551
272.9850891
272.9836234
272.9829747
272.9841311
272.9870413
272.9917861
272.9969759
273.0020854
273.0058317
273.0082002
273.0089736
273.0084637
273.0066286
273.0012421
272.245997
274.1218187
273.0002589
272.9942059
272.9916882
272.9894721
272.9872222
272.9858118
272.9851428
272.9862327
272.9889745
272.993496
272.9983309
273.0028949
273.0060801
273.0078492
273.0081805
273.0074963
273.0057189
273.001202
272.3741429
273.9591616
273.0000593
272.9953902
272.9932568
272.9913024
272.9893293
272.9880636
272.9875366
272.988511
272.9910393
272.9951175
272.9994248
273.0033336
273.0059371
273.0071675
273.0071615
273.0063836
273.0047374
273.0011057
272.4567105
273.7273974
272.9996357
272.9964282
272.9946924
272.9930947
272.9914842
272.9904651
272.9900843
272.9909613
272.9931311
272.9965701
273.0001893
273.0033645
273.0053553
273.0061463
273.0059138
273.0051541
273.003762
273.0010752
272.6035329
273.5533014
272.9994923
272.9974005
272.9961484
272.9949329
272.9937855
272.993012
272.9927974
272.9934875
272.9951823
272.9977956
273.0005603
273.0029021
273.0042941
273.0047437
273.0044483
273.0038079
273.0027556
273.0009395
272.6887172
273.3086354
273.0020284
273.0008174
273.0054977
273.0029239
273.00659
273.0022761
273.0032873
272.9996739
273.0002493
272.9996521
273.0012231
273.0011499
273.0013669
272.9994453
272.9997654
272.9986728
273.0000736
272.9995416
272.8442761
272.8397998
274.175019
273.5385823
274.8289852
274.1047025
275.057738
274.2683414
274.7968433
273.9949563
274.1933735
273.4245697
273.4558377
272.7780793
272.8252894
272.3013791
272.5166593
272.1925903
272.6391901
272.4678459
272.9975102
276.2452548
273.0063452
272.973867
272.9672682
272.9655616
272.9678576
272.9733002
272.9806606
272.9887549
272.9964472
273.0032342
273.008723
273.0132281
273.0167961
273.0197276
273.02146
273.0210823
273.0180972
273.0007184
271.3525185
276.2487494
273.0042734
272.9721354
272.9656156
272.9640075
272.9663428
272.9716836
272.9788323
272.9867412
272.994229
273.0008537
273.0062198
273.0106393
273.0141939
273.0171735
273.0189452
273.0186122
273.01573
272.9982286
271.3338041
276.2572607
273.0043133
272.9726788
272.9663547
272.9649003
272.967263
272.9724291
272.9792256
272.9867499
272.9938096
273.0001099
273.0052473
273.0095644
273.0131255
273.0161605
273.018016
273.0177893
273.0150983
272.9980914
271.298751
276.2617924
273.0043996
272.9735486
272.9675133
272.9662496
272.9685788
272.9734592
272.9797593
272.9867503
272.993238
272.9990944
273.0039212
273.0081281
273.0117001
273.0148166
273.0167967
273.016715
273.0142687
272.9979782
271.2561221
276.2580346
273.00457
272.9747872
272.969132
272.9680584
272.9702552
272.9747228
272.9804022
272.9867144
272.9925318
272.9978678
273.0023444
273.0064638
273.0100661
273.0132835
273.0153906
273.0154512
273.0132852
272.9978916
271.2075408
276.2367583
273.004864
272.9764411
272.9712483
272.9703355
272.9722767
272.9761984
272.9811274
272.9866663
272.9917347
272.9965251
273.0006451
273.0047127
273.0083735
273.0116983
273.0138986
273.0141045
273.012186
272.9978628
271.1679737
276.1912574
273.0052749
272.9785149
272.9738332
272.9730184
272.9745808
272.9778294
272.9818845
272.9865911
272.9908895
272.9951753
272.9989397
273.003017
273.0067675
273.0101995
273.0124579
273.0127819
273.0110745
272.9978241
271.1414297
276.1193652
273.0057787
272.9809324
272.9767573
272.975966
272.9770495
272.9795455
272.9826478
272.9865514
272.9901324
272.993921
272.9974351
273.00155
273.0054064
273.0089182
273.0111905
273.0115743
273.0100882
272.9979145
271.137515
276.0103624
273.0061764
272.9835303
272.9798398
272.9789741
272.9795217
272.9812402
272.9834425
272.986531
272.9895639
272.9929162
272.9962818
273.0004501
273.004339
273.0078626
273.0101024
273.010505
273.0091401
272.9981032
271.1655781
275.8750949
273.0064914
272.9861681
272.9829237
272.9818964
272.9818994
272.9828408
272.9842692
272.9866024
272.9892044
272.9923033
272.9955717
272.9996988
273.0035589
273.0069979
273.0091451
273.0095119
273.0082113
272.9984095
271.2188705
275.6918353
273.006503
272.9887508
272.9858791
272.9846626
272.9841126
272.9843429
272.9850944
272.9868211
272.9891257
272.9921019
272.9953083
272.9993248
273.0030024
273.0062161
273.0081938
273.008485
273.0072613
272.9984859
271.3156384
275.493316
273.0063755
272.9910896
272.9885443
272.9871158
272.9860854
272.9857278
272.9858968
272.9872298
272.9893536
272.9923095
272.9955074
272.9993107
273.0026602
273.0055163
273.0071909
273.0074059
273.0062145
272.9986105
271.4234311
275.2425112
273.0057293
272.9930701
272.9907989
272.9892245
272.9878402
272.987019
272.9867547
272.9878422
272.9898755
272.9928382
272.9960018
272.9995066
273.0024267
273.0048493
273.006216
273.0063066
273.0051709
272.9986293
271.5843944
274.9948609
273.0049131
272.9946372
272.9926003
272.990987
272.989392
272.9882911
272.9877479
272.9886704
272.9906571
272.9936097
272.9966841
272.9998028
273.0022584
273.004201
273.0052383
273.005208
273.0041464
272.9987433
271.7289817
274.6938637
273.003697
272.9958456
272.9940542
272.9925077
272.9908591
272.9896619
272.9889822
272.9897795
272.9916801
272.9945399
272.9974313
273.000139
273.0021224
273.0035859
273.0042959
273.0041635
273.0032122
272.9987713
271.9365068
274.4192008
273.0026075
272.9967866
272.995273
272.9938604
272.9923163
272.9911463
272.9904946
272.9911693
272.9929164
272.9955528
272.9981732
273.0004256
273.0019597
273.0029673
273.0033857
273.0031949
273.0023842
272.9989901
272.0946102
274.0908267
273.0014157
272.9975817
272.9963529
272.9951595
272.9938387
272.9928313
272.9922687
272.9928287
272.9943123
272.9966146
272.9988431
273.000629
273.0017386
273.0023626
273.0025433
273.0023511
273.001722
272.9992914
272.3296377
273.8065066
273.0006072
272.9982924
272.9974261
272.996493
272.995539
272.9947149
272.9943182
272.994703
272.9958792
272.9976511
272.9993638
273.0006711
273.0014188
273.0017455
273.0017798
273.0016461
273.0011771
272.9996816
272.4850527
273.464755
273.003412
273.0035628
273.009751
273.0088764
273.0124842
273.0085437
273.0076102
273.0028384
273.0016518
272.99988
273.0004999
272.9987819
272.9983722
272.9955027
272.9966924
272.995697
272.9985924
272.9984272
272.7324981
273.0599857
274.41694
274.1186384
275.4051529
274.9964533
275.7940187
275.2318025
275.4508361
274.7012215
274.5740144
273.6857891
273.5021897
272.5765477
272.6112475
271.7528002
272.2273915
271.5444316
272.50505
271.9847646
273.1198234
277.2108631
273.0213058
272.9823524
272.9779175
272.9779491
272.9809659
272.9865724
272.9935079
273.0007015
273.0070433
273.0121254
273.0157253
273.0182931
273.0199451
273.0211547
273.0213192
273.0195707
273.0162278
272.9955142
270.3218735
277.221549
273.0191642
272.9805352
272.9761654
272.9762726
272.9793182
272.9848097
272.991551
272.9985681
273.004757
273.0097186
273.0131456
273.0156524
273.0173318
273.0185885
273.0188533
273.0171999
273.0139667
272.9928237
270.2909853
277.2467926
273.0191729
272.9809232
272.9767114
272.976942
272.9799879
272.9853186
272.991732
272.9984464
273.0042086
273.0088946
273.0120611
273.0145124
273.0162216
273.0175836
273.0180031
273.0165478
273.0135409
272.9930725
270.2182577
277.2687835
273.0190779
272.9815545
272.9775748
272.9779352
272.9809564
272.9860313
272.992043
272.9982328
273.0034829
273.0076673
273.0105987
273.0129276
273.014723
273.0162161
273.0168503
273.0156524
273.0129725
272.9935126
270.1453868
277.2833365
273.0190451
272.9824883
272.978796
272.9793008
272.9821982
272.9869417
272.9924079
272.9980618
273.0025714
273.0063137
273.0087689
273.0110466
273.0128968
273.0145726
273.0154576
273.0145677
273.0122553
272.9940596
270.0458087
277.2761224
273.0189748
272.983761
272.9804341
272.9810286
272.98372
272.987981
272.9928447
272.9977251
273.0015403
273.0045321
273.0067157
273.0088779
273.01088
273.0127364
273.0138739
273.0132935
273.0113956
272.994617
269.9784041
277.230007
273.0188486
272.9854224
272.9824993
272.9831403
272.9854901
272.9891968
272.9932891
272.9974531
273.0003282
273.0030146
273.0045567
273.0067371
273.0088258
273.0109139
273.0122328
273.0119481
273.0104175
272.995195
269.9223705
277.1577065
273.0187989
272.9874097
272.9849002
272.9854861
272.987426
272.9904279
272.9937077
272.9969679
272.9992565
273.001067
273.0024836
273.0046167
273.0068828
273.009112
273.0106345
273.0105405
273.0093583
272.9957545
269.9133918
277.0135793
273.018295
272.9895768
272.9874536
272.9878984
272.9893552
272.9916606
272.9940785
272.9965362
272.9981667
272.9995228
273.000655
273.002833
273.0051029
273.0074349
273.0090219
273.0091212
273.0081486
272.9963098
269.959749
276.8566133
273.0179206
272.9917794
272.9900275
272.9902207
272.9911929
272.9927081
272.9943587
272.9959977
272.9971559
272.9980948
272.9991575
273.0011147
273.0034739
273.0057692
273.0074015
273.0076248
273.0068674
272.9967287
270.0424651
276.5955457
273.0166993
272.993902
272.9924656
272.9923981
272.9928115
272.9936244
272.9944982
272.9955886
272.996346
272.9971117
272.9979967
272.9998297
273.0019613
273.0042105
273.0057858
273.0061109
273.0055085
272.9968627
270.215145
276.3557915
273.0156364
272.9957496
272.9945911
272.9941943
272.9941204
272.9942458
272.9945086
272.9951611
272.995793
272.9964335
272.9971318
272.9986684
273.0005986
273.0026316
273.0041518
273.0045092
273.004081
272.9969285
270.3865046
275.9870702
273.013352
272.9972395
272.996189
272.9956209
272.9950451
272.9946824
272.9944373
272.9948949
272.995422
272.9960796
272.9966788
272.9979131
272.9995025
273.0013123
273.0026443
273.0030021
273.0026727
272.9967679
270.6743233
275.6860756
273.0115442
272.9983213
272.9973784
272.996637
272.9957351
272.9949687
272.9944382
272.9947282
272.9952829
272.9959793
272.9965511
272.9974587
272.9987085
273.0002181
273.001363
273.0016678
273.0014438
272.9967586
270.9031715
275.241152
273.0086949
272.9990756
272.9982522
272.9974215
272.9963112
272.9953444
272.994592
272.9948451
272.9954058
272.9961939
272.9967025
272.997339
272.9982197
272.9993983
273.0003406
273.0006016
273.000474
272.9967817
271.26858
274.9085283
273.0066504
272.9995601
272.9988608
272.9980016
272.9968406
272.9957741
272.9950087
272.9952027
272.9958053
272.9966017
272.9970718
272.9974549
272.9980055
272.9988218
272.9995677
272.9998143
272.999791
272.9971589
271.5161496
274.429564
273.0041099
272.9998569
272.9992835
272.9984856
272.9973901
272.9964163
272.9956949
272.9958971
272.996444
272.9972179
272.997604
272.9978081
272.9980654
272.9985776
272.9991302
272.9993805
272.9994252
272.9976406
271.9172179
274.0865712
273.0024928
273.0000086
272.9996694
272.9989609
272.9981501
272.9972696
272.9967331
272.9968387
272.9973323
272.9979402
272.9982424
272.9983152
272.9983923
272.9986484
272.9990391
272.9992727
272.9993513
272.9984179
272.1578278
273.5963973
273.0076623
273.005265
273.0193462
273.01287
273.0234677
273.0125273
273.0140147
273.0046428
273.0032148
272.9998687
272.9992389
272.9961027
272.9940598
272.9920633
272.9926218
272.9934624
272.9961782
272.9974962
272.56938
272.8250633
275.1429216
274.1908559
276.4570027
275.3245862
276.8785292
275.6062475
276.2003914
274.897045
274.8330947
273.6043073
273.2515747
272.2055798
271.9176342
271.1920104
271.293273
271.0579729
271.7285302
271.8525267
272.6809426
279.2010211
273.053077
272.9921538
272.9897892
272.9918094
272.9955685
273.0011634
273.0073349
273.013165
273.017691
273.020461
273.0219146
273.0225247
273.0226597
273.0224078
273.021125
273.0184713
273.0150117
272.9913941
268.7075931
279.2351198
273.0511838
272.9903111
272.9879508
272.9900096
272.9937591
272.9992035
273.0052617
273.0109377
273.0153
273.0180343
273.0192525
273.019841
273.0199975
273.0197696
273.0186485
273.0161051
273.0127778
272.9882433
268.6309553
279.3144152
273.051859
272.9906186
272.9883759
272.9904605
272.9941562
272.9994462
273.0052285
273.0106275
273.0145888
273.0170175
273.0180421
273.0185914
273.0187964
273.0186585
273.0177992
273.0154806
273.0124552
272.9892131
268.4780453
279.3903101
273.0523869
272.9911237
272.9890768
272.9911263
272.994754
272.9998191
273.0052351
273.0101637
273.0136194
273.01555
273.0163232
273.0167663
273.0170161
273.0170276
273.0166189
273.0146456
273.0120353
272.9906555
268.2908997
279.4794462
273.0531759
272.9918685
272.9900563
272.9920682
272.9955656
273.0003236
273.00528
273.0096347
273.0124588
273.0139322
273.0142744
273.0146197
273.0149368
273.015168
273.015175
273.0136144
273.0114969
272.992574
268.0741686
279.5129145
273.0533634
272.9929014
272.9913749
272.9933212
272.9966098
273.000927
273.0053564
273.0089559
273.0110754
273.0119355
273.0119589
273.0121964
273.0126099
273.013091
273.0135357
273.0124081
273.0107926
272.9946749
267.8974225
279.5084683
273.0533286
272.9942187
272.9930847
272.9949137
272.9978956
273.0016524
273.0054522
273.0081749
273.0094676
273.0010185
273.009483
273.0096615
273.010192
273.0109105
273.0117208
273.010993
273.0098773
272.9967385
267.7609525
279.4168206
273.0524157
272.995809
272.9950944
272.9967705
272.9993488
273.0024815
273.0054174
273.0072609
273.0077888
273.0076834
273.0070767
273.0071184
273.0077645
273.0087413
273.0096955
273.0094082
273.0086606
272.9984989
267.7156267
279.2417524
273.0506192
272.9975331
272.9972122
272.9986969
273.0007938
273.0032209
273.0052638
273.0062761
273.0060902
273.0055801
273.0047005
273.0046674
273.0052925
273.0064347
273.0074738
273.0075607
273.0071484
272.9995578
267.7693218
278.9801474
273.0479161
272.9992992
272.9993002
273.0005362
273.0020914
273.0037939
273.0049725
273.0052568
273.0045505
273.0034876
273.002531
273.0023321
273.0028985
273.0040442
273.0051481
273.0055491
273.0054833
273.0000349
267.9225994
278.6061235
273.0438359
273.0009364
273.0011896
273.002128
273.0031223
273.0040994
273.0045277
273.0042504
273.0032024
273.0017849
273.0005531
273.0001801
273.0006585
273.0016963
273.0028214
273.0034217
273.0036882
272.9994784
268.2064364
278.1806303
273.0390217
273.0022152
273.0025687
273.0032462
273.0036806
273.0040336
273.0038573
273.0032237
273.0019688
273.0003496
272.9988806
272.9982424
272.9985992
272.9995043
273.0006103
273.0012979
273.0018642
272.9987857
268.552613
277.6338916
273.0328533
273.0030829
273.0034872
273.0038138
273.0038072
273.0036323
273.0030211
273.0021983
273.0008915
272.9991923
272.9975113
272.9966555
272.9968176
272.997611
272.9986227
272.9993591
273.0001274
272.9973115
269.0397145
277.0974483
273.0270472
273.0035335
273.0039211
273.0039621
273.0035638
273.0029831
273.002109
273.0012174
272.9999692
272.998293
272.996487
272.9955195
272.9955196
272.9962603
272.9971455
272.997823
272.9986404
272.9966119
269.503244
276.4422127
273.020492
273.00364
273.0039703
273.0037826
273.0030897
273.0022462
273.0012595
273.0004293
272.9993233
272.9978221
272.9960571
272.994936
272.99477
272.9953642
272.9961458
272.9967378
272.9975931
272.9957818
270.1101505
275.8674569
273.0152294
273.0034597
273.0037008
273.003329
273.002499
273.0015139
273.000567
272.9998689
272.9989862
272.9977367
272.9960832
272.994856
272.9944972
272.9949192
272.9956195
272.9961666
272.9969955
272.9960089
270.5783329
275.1748654
273.0097681
273.0030192
273.0031685
273.0027211
273.0018711
273.0009078
273.0000581
272.9995817
272.9989066
272.9979415
272.9964803
272.9952748
272.9947703
272.9950422
272.9956723
272.996178
272.9969263
272.9962262
271.2244193
274.6026731
273.0059247
273.0023853
273.0026211
273.0021482
273.0015238
273.0006211
272.9999517
272.9995581
272.9991104
272.9983564
272.9972032
272.9961409
272.9956344
272.9957832
272.9963181
272.996759
272.9973405
272.9973418
271.6466897
273.9104639
273.0126545
273.0128839
273.0343899
273.0306098
273.044221
273.032639
273.0284875
273.0143849
273.0076422
273.0010272
272.998158
272.9924982
272.9898475
272.9884345
272.9892295
272.9921607
272.994145
272.9974464
272.2982113
273.207377
275.6923046
275.3090116
277.715799
277.1305077
278.4776788
277.6044088
277.54973
276.2731613
275.5216081
274.0234015
273.1997008
271.656278
271.2695628
269.8811643
270.4492732
269.5441475
271.2874138
270.7781922
272.8669671
281.191488
273.0925618
273.0019441
273.001598
273.0052174
273.009636
273.0148795
273.0199581
273.024277
273.0267742
273.0272154
273.0264265
273.0252553
273.024044
273.0224946
273.0200428
273.0167963
273.0135636
272.9920377
266.541925
281.2729619
273.0914471
273.0001292
272.9997147
273.0033409
273.0077073
273.0127511
273.0177578
273.0219181
273.0242402
273.0247636
273.0238114
273.0226763
273.0214475
273.0198802
273.0175885
273.0144809
273.011449
272.9885627
266.4073926
281.4378283
273.0940736
273.0004645
273.0000805
273.0036442
273.0078781
273.0127174
273.0174388
273.0213993
273.0231913
273.0236031
273.0225806