/*--------------------------------*- C++ -*----------------------------------*\
| =========                 |                                                 |
| \\      /  F ield         | OpenFOAM: The Open Source CFD Toolbox           |
|  \\    /   O peration     | Version:  5.x                                   |
|   \\  /    A nd           | Web:      www.OpenFOAM.org                      |
|    \\/     M anipulation  |                                                 |
\*---------------------------------------------------------------------------*/
FoamFile
{
    version     2.0;
    format      ascii;
    class       volScalarField;
    location    "6";
    object      p;
}
// * * * * * * * * * * * * * * * * * * * * * * * * * * * * * * * * * * * * * //

dimensions      [1 -1 -2 0 0 0 0];

internalField   nonuniform List<scalar> 
30538
(
101293.5871
101294.3945
101314.8414
101320.0529
101319.997
101319.3746
101323.6702
101325.2737
101322.6219
101325.9286
101344.4806
101359.0086
101349.9721
101333.5266
101332.6496
101340.9218
101337.9838
101318.2212
101299.9862
101294.8764
101298.9322
101300.9136
101310.4326
101312.6159
101315.1405
101316.4482
101320.7565
101326.1815
101329.2352
101331.8254
101341.8072
101352.0677
101349.1963
101338.5345
101334.3607
101335.7464
101333.1088
101320.8299
101308.2976
101300.2468
101306.3593
101309.6746
101306.8658
101305.6893
101311.3746
101313.9626
101317.2314
101326.0591
101335.9916
101338.6042
101337.7109
101342.59
101347.9487
101344.9403
101336.1771
101327.8144
101325.033
101323.9722
101320.1027
101308.5466
101311.253
101317.232
101305.3469
101302.9407
101310.9455
101313.8622
101315.0329
101324.4364
101338.7995
101342.5722
101334.5452
101334.6848
101346.8626
101350.7808
101337.5562
101319.9816
101316.7263
101325.9183
101330.3683
101315.4643
101311.0789
101318.0143
101306.5513
101304.7787
101312.52
101315.0335
101315.4115
101322.5916
101336.4988
101341.9704
101334.6755
101332.9687
101346.0982
101353.1732
101339.3914
101317.6312
101312.5686
101324.8691
101332.9048
101317.8657
101306.6794
101311.9816
101307.8086
101308.2356
101313.9106
101315.5047
101317.1557
101321.4306
101330.3131
101337.6428
101338.5085
101337.6869
101345.376
101350.9435
101340.7234
101321.1583
101314.1875
101321.2846
101326.589
101314.6851
101300.8234
101303.7935
101307.7391
101310.7976
101313.2624
101314.1247
101317.9011
101320.1142
101323.7313
101332.8566
101342.7943
101343.9422
101343.3225
101344.6244
101340.1316
101327.9974
101319.6395
101315.6483
101314.1949
101307.4086
101297.5431
101297.6046
101307.3917
101311.783
101311.3222
101311.4271
101316.5062
101317.8821
101319.1108
101328.8274
101344.8459
101346.8989
101339.8049
101336.4929
101336.7799
101333.2666
101324.2427
101310.2698
101301.268
101299.5034
101298.4618
101297.5579
101308.148
101311.5686
101308.9827
101309.0317
101313.8603
101315.3457
101317.5497
101325.913
101342.4233
101345.6552
101336.57
101330.0812
101331.4521
101333.1182
101325.1737
101306.4155
101292.6473
101294.5596
101301.9487
101302.6418
101309.6714
101309.4491
101306.9661
101308.2932
101312.5423
101314.6314
101318.526
101323.3565
101335.6328
101340.7268
101334.8844
101327.518
101325.7268
101327.167
101321.6291
101305.5027
101292.0525
101294.2845
101304.5822
101307.6557
101310.2457
101306.2932
101305.7519
101309.7776
101314.0774
101317.1001
101320.6413
101320.3661
101327.0485
101333.9043
101334.463
101327.9323
101320.6093
101317.4835
101315.0756
101307.4504
101299.7202
101298.7557
101305.1521
101310.3615
101309.7445
101303.8371
101305.2815
101312.0488
101317.8302
101320.7835
101322.0399
101317.6577
101320.2563
101327.3501
101332.5547
101327.9218
101316.1672
101308.3196
101308.5545
101310.3783
101309.9174
101305.0188
101304.6515
101311.5425
101309.5005
101303.8245
101306.2077
101313.1582
101320.1752
101322.52
101321.6793
101316.7262
101317.251
101321.8586
101327.0548
101324.2091
101312.1847
101302.6219
101303.6828
101312.2242
101317.0158
101309.1803
101304.4492
101311.9654
101311.0123
101306.6759
101307.9756
101312.5603
101318.3409
101320.8913
101320.1293
101317.4112
101318.4672
101317.8311
101318.5167
101316.9417
101308.7037
101300.2121
101300.6527
101310.8949
101318.3742
101309.5799
101305.3168
101312.6292
101313.408
101310.4977
101310.0013
101310.9291
101313.5119
101317.5466
101319.6797
101319.2654
101320.1197
101314.1995
101309.361
101308.7471
101305.4059
101299.9932
101298.9785
101306.9531
101313.6248
101306.8465
101305.8249
101312.1956
101313.9322
101312.1294
101311.5811
101310.218
101310.5983
101316.0959
101320.6861
101319.6562
101318.5178
101310.6394
101304.1454
101303.6105
101302.3271
101299.3284
101297.7226
101302.8064
101307.7959
101303.9502
101305.3894
101310.4418
101310.0639
101310.336
101312.0925
101310.1586
101310.5052
101317.438
101322.2127
101318.0114
101312.6005
101306.5225
101303.5824
101302.5579
101300.0239
101297.8636
101296.887
101300.8903
101305.2248
101302.7215
101304.1455
101306.9651
101303.3663
101305.6437
101311.1636
101309.0084
101311.2482
101318.233
101321.9767
101314.0078
101304.7007
101302.2299
101305.5216
101304.1745
101298.919
101296.3603
101296.9688
101301.0824
101305.2564
101302.9034
101302.5737
101303.5486
101298.0043
101301.0246
101307.8131
101307.3417
101309.728
101315.8311
101317.7273
101308.7347
101298.8636
101299.1598
101306.3727
101305.6117
101299.236
101296.4451
101298.0699
101302.0278
101305.3926
101303.0175
101300.6728
101300.4441
101297.5894
101301.047
101303.426
101303.9343
101304.8475
101306.6271
101307.3938
101301.7215
101297.8712
101300.1891
101303.8225
101303.1419
101299.6982
101298.0228
101299.3983
101301.2528
101302.949
101301.5735
101302.247
101309.8895
101308.9575
101310.5063
101321.876
101323.0341
101322.4508
101325.0795
101326.6673
101324.8965
101331.0818
101343.6334
101345.6235
101333.4192
101322.691
101321.2768
101322.6426
101316.2572
101307.2944
101300.4444
101303.9983
101310.0462
101310.8576
101311.8963
101317.8317
101318.2831
101318.7993
101324.137
101330.2531
101331.0397
101333.2204
101339.9499
101341.6567
101334.6437
101326.2702
101321.5782
101320.6228
101316.9868
101311.2414
101303.6214
101305.3113
101308.0749
101312.5014
101313.8122
101314.7953
101313.752
101314.8336
101321.9828
101332.7755
101337.6625
101336.391
101335.0376
101336.422
101336.5697
101331.0277
101321.7909
101317.072
101316.6211
101315.323
101307.6163
101304.2759
101304.9997
101312.943
101315.4526
101313.4125
101311.6039
101313.2368
101320.0012
101332.0353
101340.5038
101338.9948
101331.799
101332.2661
101338.3445
101335.4688
101321.7759
101313.1524
101314.1786
101316.5843
101309.8582
101303.0518
101304.3136
101312.6888
101316.1152
101313.558
101311.6832
101314.7256
101320.3337
101329.2098
101337.8335
101339.6012
101332.0124
101331.4084
101338.3817
101337.3649
101323.3257
101312.3819
101311.0557
101313.7617
101308.9662
101303.1272
101306.5164
101310.3261
101313.7408
101313.1374
101312.48
101317.596
101322.3731
101326.1707
101331.5494
101337.5899
101335.0355
101333.4864
101336.5925
101335.5995
101325.3918
101315.0463
101309.1623
101308.591
101305.5476
101302.7922
101307.2414
101306.5223
101308.9049
101310.9893
101312.6846
101319.8776
101323.8029
101323.3101
101325.0933
101334.5575
101338.9793
101337.007
101333.4995
101330.5262
101326.5543
101319.2054
101309.1116
101303.3571
101301.1403
101301.5397
101305.0008
101303.5616
101304.6905
101308.747
101312.7539
101319.8928
101322.465
101320.4004
101320.8106
101331.7029
101341.0225
101338.9219
101329.8233
101324.283
101324.7644
101321.4855
101309.6696
101299.8514
101297.5703
101300.6204
101302.902
101304.5348
101304.5114
101308.697
101313.921
101317.7235
101318.0344
101318.4332
101319.311
101329.6
101339.5542
101338.5963
101327.4888
101319.1415
101320.1011
101320.0424
101309.9786
101299.238
101296.286
101301.6409
101304.1691
101308.9134
101307.3107
101310.1836
101315.2342
101314.7801
101314.4544
101318.4635
101320.2712
101326.9362
101334.1978
101335.5639
101326.8933
101316.6719
101314.4242
101315.0399
101309.407
101301.1024
101297.3817
101303.8334
101308.6161
101312.7407
101309.1059
101310.5801
101314.4824
101313.2854
101314.343
101320.6073
101321.4489
101323.0416
101326.3435
101330.5656
101327.0726
101316.507
101308.9371
101308.0005
101307.8265
101304.5527
101300.4502
101306.158
101312.5842
101313.4103
101308.9502
101309.3769
101311.3159
101313.3295
101317.5291
101322.8103
101321.1582
101318.9291
101318.6633
101323.7959
101324.814
101315.7176
101304.827
101301.4119
101305.35
101307.3911
101303.586
101306.6699
101313.0806
101311.2766
101309.3865
101308.9807
101308.4508
101314.0091
101320.4654
101322.5913
101319.3448
101316.5415
101314.1523
101316.5253
101318.4758
101312.6258
101302.1658
101297.0731
101302.1545
101308.0448
101304.9986
101305.2556
101310.6641
101310.2291
101312.3415
101311.3359
101308.3532
101314.4129
101321.0133
101319.1063
101316.5302
101316.8171
101313.2521
101309.99
101309.6775
101307.0708
101300.3247
101295.4565
101299.2044
101305.9484
101304.6435
101303.5557
101308.1364
101312.2321
101316.7504
101315.6519
101310.4719
101313.4378
101319.1172
101314.9759
101314.2623
101318.7322
101313.8459
101305.358
101301.392
101300.8813
101299.3647
101295.7793
101296.8506
101302.1507
101302.6951
101302.7612
101307.5458
101314.5933
101318.3113
101317.9973
101312.1422
101312.0569
101316.3005
101313.7281
101313.5631
101317.0878
101311.9753
101303.0878
101297.5268
101296.9817
101298.4476
101296.5837
101296.0649
101299.4342
101300.7896
101303.1333
101307.8343
101313.0961
101315.2601
101315.7071
101311.0082
101309.9248
101313.9861
101315.6839
101314.2663
101311.6769
101306.2903
101302.1185
101298.2228
101296.6958
101298.0575
101297.1925
101296.5327
101298.6237
101299.8434
101304.0824
101307.5122
101307.5575
101308.5722
101309.7798
101307.2222
101307.0523
101311.0748
101317.8229
101314.247
101304.0277
101298.7161
101300.8469
101300.8192
101298.8161
101298.2025
101297.6404
101297.6193
101299.1005
101299.8253
101304.1593
101305.8219
101301.2686
101301.8141
101303.2792
101303.1414
101303.8071
101307.9548
101315.6719
101311.9324
101298.7522
101293.4209
101299.4141
101303.0094
101301.0989
101299.191
101298.3245
101298.4473
101299.4885
101300.0453
101302.1031
101301.6918
101298.9733
101299.8193
101300.1765
101301.7444
101301.6304
101304.0208
101306.9825
101303.4702
101297.7699
101296.2149
101299.6885
101302.4361
101301.5202
101299.5812
101299.1934
101299.6153
101299.9501
101300.2926
101314.349
101329.4941
101304.8686
101303.0943
101324.6463
101325.5394
101320.6395
101324.8545
101332.5361
101326.7538
101315.0953
101319.0896
101332.0983
101330.7685
101311.5876
101296.0516
101298.965
101309.7744
101314.447
101307.7652
101310.2947
101321.011
101314.5151
101315.7633
101324.0432
101321.2029
101316.6796
101320.9764
101330.1652
101330.0153
101322.6291
101320.8862
101325.6373
101325.666
101314.9919
101302.9183
101302.2854
101308.2027
101311.4822
101306.6878
101301.8897
101305.0363
101321.3638
101327.1609
101321.7398
101316.5543
101314.7149
101317.2171
101324.8551
101332.2987
101333.7843
101325.0478
101318.1337
101319.8289
101320.3183
101312.7024
101306.903
101304.7044
101305.1956
101303.6818
101292.5066
101288.2071
101321.5393
101331.0177
101317.7348
101313.0564
101316.6218
101316.6917
101318.5323
101331.5067
101343.1941
101330.3672
101313.8691
101315.2925
101324.9812
101322.1672
101310.8854
101299.6747
101296.5223
101299.4579
101291.4492
101287.043
101316.8763
101326.9357
101315.1395
101312.018
101318.9795
101318.8971
101316.6789
101328.2093
101342.5083
101332.5469
101314.9379
101313.8618
101324.7259
101326.7743
101314.3578
101296.8859
101289.5784
101295.6131
101299.3157
101301.1169
101310.5473
101316.7092
101313.0275
101312.2505
101319.8234
101322.2047
101320.2747
101323.5734
101332.2738
101329.9833
101320.3536
101315.4497
101320.1947
101325.0088
101316.1721
101297.7695
101288.2454
101293.9305
101308.4881
101315.234
101304.9403
101305.4244
101310.2085
101313.0858
101319.2727
101324.8384
101325.0901
101318.825
101318.8608
101327.0144
101328.2631
101319.2249
101313.7517
101317.3624
101315.071
101302.2002
101293.0509
101295.1511
101310.9303
101319.644
101301.2104
101298.0298
101308.8543
101315.4095
101318.6794
101324.9037
101326.7972
101315.0891
101309.9645
101325.8288
101336.1229
101323.0999
101307.6497
101307.1188
101310.7793
101307.4578
101301.2173
101298.5247
101305.3305
101311.7948
101302.1345
101299.3293
101311.1436
101319.5608
101318.7158
101321.5592
101323.3838
101313.1155
101309.3924
101325.3342
101337.7559
101325.5607
101305.581
101299.49
101305.0862
101310.4307
101308.5641
101301.6889
101298.8478
101302.8128
101307.5462
101307.147
101316.0667
101323.0213
101317.4171
101316.7572
101318.38
101314.382
101314.0556
101322.6528
101331.3986
101324.6308
101307.9184
101297.3411
101300.2886
101309.3541
101311.3941
101303.1943
101298.7991
101303.3566
101313.3216
101314.6742
101318.6296
101319.8736
101313.8909
101314.1688
101316.9171
101318.1206
101317.9128
101316.4316
101319.6099
101320.4738
101311.7538
101300.0049
101296.5477
101304.2135
101308.1682
101302.5401
101305.2877
101311.0972
101316.4375
101318.4206
101317.0855
101311.1149
101309.5905
101315.1202
101319.9938
101321.4782
101318.2414
101309.302
101308.0427
101313.3183
101312.9075
101303.0034
101294.258
101296.2247
101300.4671
101300.4656
101310.3798
101316.1025
101314.7589
101319.2291
101314.9675
101304.4217
101307.8831
101317.4004
101321.7254
101320.4076
101315.0583
101305.0271
101300.5363
101305.4224
101309.1514
101302.8007
101292.1329
101288.664
101292.8872
101297.9493
101309.0562
101313.4386
101311.4922
101320.0181
101316.9783
101305.3213
101311.5612
101319.8114
101318.1377
101314.9752
101311.6512
101305.1449
101299.4438
101298.1988
101300.7044
101299.1504
101290.8189
101284.9149
101288.6144
101296.6909
101302.7628
101305.7758
101310.8369
101321.9118
101323.1919
101313.1943
101316.4182
101319.3006
101310.2813
101308.3328
101310.7611
101308.7878
101301.7745
101293.3641
101291.814
101294.4097
101290.8982
101285.5628
101287.7846
101295.8666
101298.2995
101300.9387
101312.5103
101321.9757
101325.9057
101318.0332
101316.8564
101315.0943
101305.5338
101305.8297
101309.9904
101308.8082
101302.6059
101292.0015
101288.6428
101292.4631
101292.9923
101289.0617
101289.3039
101295.2182
101298.5572
101301.8826
101313.1754
101318.956
101320.3332
101315.6094
101311.4514
101307.9736
101306.0128
101308.9699
101308.1907
101303.275
101298.636
101292.7287
101291.54
101294.7354
101295.7018
101292.9054
101290.6144
101294.7735
101302.3417
101306.1876
101312.5865
101313.3228
101308.884
101308.0619
101303.5897
101300.8767
101309.5833
101313.9747
101305.6564
101295.3401
101291.453
101293.603
101297.1336
101298.2956
101297.4567
101294.8601
101291.3287
101294.589
101305.0591
101308.173
101309.1499
101306.9117
101298.4686
101300.1561
101297.4929
101296.6288
101310.0984
101315.1345
101302.88
101289.7467
101287.2656
101294.6484
101301.2037
101301.1792
101298.1629
101295.1478
101292.2327
101295.264
101303.6921
101303.2523
101303.3616
101300.2339
101296.6029
101299.6721
101297.6398
101299.8053
101305.519
101306.1968
101300.1049
101293.2135
101292.9079
101298.4504
101302.1982
101300.8554
101298.7828
101297.8055
101296.241
101298.1759
101317.8664
101337.2159
101306.871
101306.8708
101324.6079
101320.4007
101313.2471
101324.0704
101337.2586
101329.0552
101304.8994
101294.7916
101308.7069
101317.6557
101303.9323
101283.1181
101281.4866
101298.6754
101313.0439
101310.3949
101310.3849
101323.1709
101320.2885
101325.0765
101328.5593
101321.5962
101314.2603
101317.6117
101325.8866
101325.041
101313.6303
101303.7659
101305.6188
101308.8675
101302.7018
101289.0473
101286.6078
101295.785
101305.2415
101305.9363
101297.1444
101301.213
101328.0425
101339.0809
101328.1856
101321.7745
101319.8122
101314.0275
101311.4082
101318.9635
101326.1851
101316.8771
101302.8161
101298.942
101302.1954
101299.5649
101296.2575
101292.9433
101293.4129
101298.3975
101284.3685
101279.1577
101324.9005
101339.3801
101321.3742
101319.9036
101327.8997
101315.5546
101300.4847
101314.0923
101336.1256
101328.636
101302.5313
101291.9743
101302.1147
101311.4417
101307.3784
101291.5952
101281.8783
101290.6347
101284.2634
101277.9893
101313.9873
101326.5499
101316.2314
101319.1488
101328.2757
101316.7528
101302.4065
101313.4433
101334.2891
101330.5524
101305.6166
101291.4087
101300.0364
101316.8628
101315.2953
101292.6397
101274.88
101284.6956
101296.7998
101297.6405
101304.6812
101310.4783
101313.6968
101319.3168
101319.1163
101315.3216
101313.4655
101316.6397
101321.4432
101320.9299
101309.8831
101296.9217
101297.3738
101312.7678
101315.3417
101294.9776
101276.5703
101284.2438
101313.2147
101320.8697
101302.4783
101300.1451
101312.4631
101318.8561
101309.4975
101314.3912
101326.3663
101319.6011
101304.9412
101307.7584
101315.6797
101306.8456
101296.1818
101301.4954
101306.5853
101298.3315
101287.4944
101290.6168
101320.887
101333.4494
101304.1478
101297.0347
101312.6812
101319.2069
101306.9947
101316.5807
101332.9282
101320.1859
101294.0909
101299.4441
101321.3089
101318.5471
101297.3887
101287.7515
101293.2649
101301.9954
101304.4584
101301.7165
101311.9617
101323.1361
101304.8486
101300.8438
101315.1771
101321.0552
101312.6519
101319.6177
101329.0999
101316.0557
101296.0066
101299.3539
101321.9165
101324.4117
101301.4657
101279.1851
101282.2877
101303.5972
101318.8563
101311.5724
101296.2965
101302.0728
101305.0042
101310.0517
101320.9454
101323.0659
101318.7658
101320.0146
101317.3195
101310.5168
101302.7792
101301.5234
101313.2592
101320.1884
101305.466
101280.9985
101278.5868
101301.1213
101320.9176
101314.2407
101291.3919
101293.4667
101307.8464
101320.5783
101325.8699
101318.791
101317.3936
101316.5154
101309.1249
101310.1557
101311.3595
101302.4059
101299.4671
101307.2939
101307.8162
101292.1796
101282.9398
101293.2404
101308.4712
101307.3652
101301.0888
101302.4019
101313.695
101328.9307
101327.2154
101310.4088
101308.8925
101312.1902
101309.3578
101314.0689
101316.0647
101301.5611
101288.8709
101293.0297
101305.3462
101304.0386
101289.8729
101282.2871
101287.893
101294.5923
101311.3924
101315.251
101318.3315
101330.9585
101325.0249
101304.9788
101304.3594
101311.7621
101314.9691
101315.4796
101313.0841
101301.2361
101287.8349
101284.4217
101297.4117
101307.1644
101294.2811
101274.4553
101270.711
101284.546
101312.2935
101318.1238
101316.8004
101327.1669
101323.4552
101309.409
101310.7085
101316.0188
101317.1544
101310.3936
101302.2375
101300.8823
101295.34
101283.3784
101285.3193
101299.333
101295.1068
101274.8505
101266.8412
101282.0535
101302.516
101308.4285
101311.5103
101320.7863
101325.4042
101320.5157
101321.9188
101318.7374
101312.6339
101301.5258
101291.5088
101300.8821
101305.6887
101287.7558
101276.251
101285.1013
101293.3244
101283.5319
101276.4531
101286.8531
101294.0857
101297.6827
101306.947
101316.2373
101324.8668
101324.9955
101324.0183
101313.3728
101304.1287
101297.6006
101289.1475
101296.9752
101305.9689
101291.4321
101276.0148
101276.8109
101290.6689
101292.9897
101288.6354
101292.7776
101293.3517
101294.6472
101307.3676
101315.4481
101318.3169
101320.6718
101316.4641
101301.2084
101296.8744
101302.5194
101298.5033
101293.0057
101293.0871
101290.6776
101284.3229
101280.2112
101289.1365
101295.7509
101293.097
101294.3841
101298.3463
101300.8484
101314.7498
101318.7814
101308.8281
101311.5706
101306.5212
101291.069
101292.9339
101312.4225
101314.6585
101292.5359
101276.6598
101285.945
101295.4348
101289.9575
101288.813
101293.2954
101290.6869
101292.8342
101302.4662
101305.5136
101319.6714
101319.9055
101300.5201
101301.8594
101298.6214
101287.03
101293.962
101317.8866
101323.6339
101294.5012
101270.9323
101282.7844
101301.4648
101299.2885
101291.7973
101290.9548
101288.0409
101291.6821
101303.1903
101302.6477
101309.8972
101303.8089
101297.3146
101300.1957
101297.4837
101294.3971
101299.148
101309.9047
101311.1254
101296.0824
101284.1742
101291.8785
101302.5567
101302.4525
101297.1049
101294.5322
101292.0719
101295.9153
101307.9407
101319.3415
101318.185
101324.252
101325.0843
101317.2952
101313.4364
101316.8299
101325.1078
101325.6455
101307.6123
101281.8836
101277.4586
101291.1044
101295.3971
101284.8981
101279.4791
101287.4923
101297.9626
101303.2202
101301.7461
101308.3658
101320.002
101331.3565
101330.7667
101324.4779
101315.8446
101312.504
101316.6494
101318.2922
101309.1823
101292.5724
101284.5111
101285.2282
101286.5317
101281.9893
101280.047
101284.9582
101293.3602
101299.672
101295.4434
101300.0102
101321.1466
101335.1693
101330.6814
101328.2337
101324.4163
101315.1544
101307.7279
101306.1185
101309.3898
101307.7073
101294.7726
101280.3747
101278.2573
101282.4261
101285.9662
101285.7048
101288.2129
101295.0346
101293.4628
101297.4905
101319.4267
101330.2498
101322.3304
101326.7877
101336.2809
101321.1072
101298.8724
101293.3885
101308.8757
101320.5919
101304.8549
101279.6928
101274.0937
101286.2368
101296.4059
101291.0904
101285.8136
101290.8501
101294.7935
101298.8377
101310.4064
101316.4031
101316.6185
101327.014
101336.1808
101318.6226
101297.087
101293.999
101309.1847
101320.7135
101305.7241
101281.7446
101274.6306
101290.0545
101302.8399
101295.8096
101284.0514
101287.3326
101297.9654
101300.4362
101302.2273
101304.4003
101315.4988
101330.0753
101321.1761
101305.986
101301.632
101308.4198
101312.6948
101306.7983
101297.5225
101284.6548
101279.6643
101290.7993
101301.2477
101296.5011
101284.1411
101286.2855
101306.6953
101309.1712
101304.9451
101303.0114
101317.9375
101330.8763
101304.1025
101296.0332
101310.5556
101323.5039
101313.0592
101289.0213
101289.2673
101292.7173
101289.5078
101288.3177
101291.743
101293.5017
101288.831
101291.1166
101315.107
101323.0146
101313.8866
101309.4966
101318.7474
101325.2665
101298.8184
101299.7567
101321.9768
101331.0327
101309.5565
101278.4384
101286.5919
101305.849
101301.8943
101282.3743
101277.75
101289.9026
101298.4533
101301.4626
101311.6928
101322.4489
101314.1792
101314.6379
101317.327
101317.9283
101307.2028
101312.0938
101322.8252
101326.5068
101304.8729
101275.6905
101286.5778
101311.8194
101307.7564
101277.6353
101268.4674
101288.9539
101308.9491
101312.5544
101298.852
101308.0997
101306.1978
101317.5324
101319.1903
101314.3615
101320.3506
101322.5899
101313.5349
101312.1863
101302.817
101278.8031
101282.7944
101304.7482
101303.4435
101276.709
101267.8971
101288.4156
101312.9854
101317.1837
101292.0658
101296.6477
101302.5276
101323.2728
101325.2742
101316.1953
101325.6167
101320.5246
101301.1228
101302.7788
101304.2016
101285.6876
101277.8741
101288.389
101294.2375
101283.1434
101276.0457
101284.6881
101302.1116
101308.8742
101298.1763
101297.0263
101308.6769
101330.8024
101333.4081
101321.6839
101319.2016
101307.1991
101294.9251
101302.8474
101307.9475
101291.4353
101276.3447
101274.0256
101285.4663
101292.5741
101286.1466
101277.0892
101280.6895
101291.3752
101307.2472
101308.8299
101319.3938
101332.586
101335.2488
101326.0942
101310.1372
101299.2661
101300.2208
101308.8236
101306.5079
101293.7394
101280.1026
101269.1095
101278.458
101296.4424
101292.8271
101270.9048
101261.4816
101276.8015
101310.5043
101318.2075
101323.3943
101324.9311
101328.5322
101328.9498
101311.7942
101303.8605
101312.0169
101310.8962
101295.3321
101291.6983
101288.6032
101274.5451
101272.8067
101290.1352
101293.4416
101273.1963
101258.5558
101273.1014
101303.2472
101314.4324
101315.8857
101312.7559
101320.9253
101329.6118
101319.7248
101311.886
101318.7564
101304.4223
101279.0812
101286.6155
101297.4955
101283.9673
101269.7557
101276.4706
101288.9463
101283.5384
101273.0546
101282.1213
101294.8904
101303.6229
101303.829
101305.7212
101314.7164
101324.4719
101322.6272
101313.1207
101312.2675
101296.7122
101274.2702
101282.0899
101296.3951
101287.601
101271.0778
101268.1103
101284.147
101293.326
101291.9647
101294.3834
101293.2663
101295.8029
101301.9281
101308.9303
101309.8482
101318.1529
101319.5117
101305.172
101297.9761
101294.0569
101287.11
101284.3933
101285.1977
101282.7617
101276.1708
101270.2361
101281.3443
101295.4203
101300.8308
101300.2871
101296.3654
101297.8027
101313.5116
101320.4678
101307.0628
101312.4685
101316.3907
101297.3564
101281.1766
101296.8114
101314.1904
101297.735
101274.2457
101275.162
101284.4416
101279.6978
101280.3941
101290.8974
101299.1373
101299.7795
101298.7946
101301.5397
101325.3353
101329.1184
101305.3976
101305.4648
101312.3395
101294.071
101274.5413
101301.5251
101331.2739
101310.3748
101274.1275
101274.55
101291.5978
101291.1624
101285.3692
101288.1476
101293.5166
101296.3494
101300.7134
101301.5636
101314.7292
101308.055
101299.7864
101300.7316
101303.6971
101296.0221
101289.5124
101303.761
101316.6159
101304.9555
101286.6362
101286.8955
101297.7418
101300.3397
101294.5669
101291.7897
101293.3583
101296.9619
101297.1195
101298.6052
101330.4193
101340.5501
101320.3112
101326.014
101328.0464
101301.6703
101294.7587
101324.0767
101327.2695
101282.8278
101250.1823
101258.9054
101274.4152
101276.4315
101280.8186
101286.4947
101289.6637
101295.6595
101289.1624
101286.7593
101306.3512
101323.4444
101332.3115
101334.4718
101317.4334
101299.8578
101301.0226
101310.4712
101304.6787
101281.6768
101266.8744
101266.1846
101272.1048
101276.6391
101279.0773
101279.8445
101282.742
101291.6487
101294.8444
101300.5301
101296.3772
101311.7332
101334.7126
101333.9899
101315.874
101310.3459
101308.8864
101293.4798
101285.4661
101289.3934
101287.7637
101272.0073
101267.3816
101274.0489
101278.4821
101277.5873
101281.2954
101291.3929
101313.6814
101333.4697
101307.8478
101311.7008
101322.2349
101322.9031
101324.1581
101328.8864
101313.6456
101278.4946
101274.6338
101301.8548
101302.8683
101274.1428
101260.7546
101268.4556
101278.128
101281.8636
101288.3891
101296.6883
101317.9954
101340.3194
101313.9846
101310.7244
101309.0994
101319.573
101331.5201
101332.6976
101310.4367
101279.1168
101276.8139
101305.3233
101302.9661
101273.5561
101259.1863
101265.8822
101277.927
101288.3139
101298.8625
101302.8699
101302.6261
101310.7812
101310.0236
101310.413
101307.3881
101326.7015
101334.7016
101319.5285
101296.1787
101288.9426
101291.7019
101304.8731
101290.7335
101270.9219
101264.2921
101269.0821
101277.9629
101291.8387
101304.335
101305.3214
101290.6136
101284.3439
101313.2573
101320.076
101315.6321
101328.8115
101326.2128
101304.2776
101282.8138
101298.7279
101313.5814
101302.9311
101276.1345
101268.1855
101277.1389
101278.0142
101277.3258
101289.1688
101301.1091
101303.8541
101294.2607
101286.7902
101325.593
101334.6566
101317.9274
101316.6097
101315.0065
101300.9163
101280.6414
101307.5923
101340.68
101299.1565
101264.0647
101269.4245
101293.2254
101288.9941
101274.9054
101281.0411
101292.9812
101299.0263
101303.7789
101305.0566
101326.6191
101337.6581
101309.424
101299.6424
101317.1148
101312.9895
101288.9812
101306.6064
101321.6423
101295.7295
101262.5214
101272.2225
101302.5129
101295.6383
101273.1346
101273.0387
101285.4213
101296.9761
101307.3592
101319.9489
101315.0685
101331.7073
101303.7217
101293.9327
101330.9433
101329.3156
101294.6873
101292.9192
101308.2664
101291.1372
101262.3213
101269.8958
101297.0377
101293.7912
101273.5865
101269.8283
101282.1792
101296.3338
101303.0022
101314.0337
101304.4706
101327.249
101311.4236
101307.58
101342.1138
101331.5642
101294.7246
101283.9228
101298.597
101292.7732
101266.7659
101260.4111
101280.2682
101285.1632
101277.5206
101272.0863
101280.2517
101294.4601
101296.9284
101299.8449
101304.9927
101325.4953
101327.6696
101335.5069
101342.1034
101314.3731
101286.7357
101284.3976
101296.1916
101295.4147
101271.1229
101253.7022
101263.3991
101276.3425
101281.7393
101276.7791
101278.0966
101290.5442
101297.3653
101297.9679
101317.2451
101322.879
101336.8521
101354.3902
101330.5062
101287.806
101279.2025
101295.8048
101300.2586
101288.9954
101272.3935
101256.2295
101258.1922
101269.2336
101282.1369
101281.8294
101278.7399
101286.8343
101303.5272
101312.3266
101327.3207
101315.734
101326.2891
101354.7978
101320.0004
101271.3509
101283.2535
101315.1439
101300.9372
101274.9108
101268.6095
101268.4477
101265.9817
101263.6913
101276.1595
101284.8025
101283.2443
101286.8403
101306.8589
101323.4081
101322.52
101303.8671
101311.1781
101343.1124
101316.0567
101277.8633
101300.1255
101327.9185
101297.6242
101261.0228
101264.8975
101282.7946
101276.5268
101261.394
101268.3121
101283.7341
101289.9983
101292.8874
101304.6062
101320.0805
101305.2301
101298.8783
101302.7851
101328.7934
101317.4652
101301.4409
101314.7501
101321.1033
101289.931
101258.0262
101265.1431
101287.2797
101282.3777
101265.3904
101263.6632
101279.9014
101294.769
101299.5166
101302.5248
101310.8664
101298.0356
101304.2616
101304.4994
101313.9569
101318.5965
101321.1846
101314.6171
101295.5371
101283.4021
101276.5506
101274.9552
101278.8763
101281.3468
101274.3946
101267.8853
101276.5794
101294.4617
101302.6827
101299.6419
101304.976
101307.9933
101313.3325
101310.9509
101303.7994
101317.9824
101330.9313
101297.0567
101261.2901
101282.8512
101311.6853
101291.2225
101266.4926
101275.9585
101287.2512
101280.1642
101276.9257
101291.8968
101302.4216
101297.0508
101305.0075
101322.0811
101324.1871
101315.2948
101296.1798
101314.8603
101327.9406
101281.6696
101248.0662
101291.83
101338.0833
101307.1537
101265.1253
101275.1001
101294.6133
101292.7968
101284.2566
101293.0907
101300.83
101297.6365
101302.2262
101313.7191
101312.4018
101305.326
101296.265
101304.7492
101307.0622
101290.3665
101282.0457
101300.1647
101319.7527
101306.3254
101281.8013
101283.2311
101300.1047
101304.4432
101294.3112
101295.7778
101299.3006
101300.5366
101301.4842
101339.2163
101350.6241
101300.1123
101316.7489
101336.7936
101311.8607
101287.9001
101284.5751
101293.2498
101292.3383
101258.5926
101231.1726
101236.7547
101249.2279
101272.7128
101286.5608
101290.8605
101296.398
101285.4858
101280.862
101297.304
101312.9093
101326.9301
101336.3869
101324.889
101297.9406
101288.6259
101294.1278
101292.7791
101281.1579
101267.1866
101257.5571
101257.6518
101264.1239
101268.5354
101274.4422
101279.8589
101290.5305
101291.8467
101298.1712
101279.3686
101290.9547
101339.7288
101341.991
101313.7926