/*--------------------------------*- C++ -*----------------------------------*\
| =========                 |                                                 |
| \\      /  F ield         | OpenFOAM: The Open Source CFD Toolbox           |
|  \\    /   O peration     | Version:  5.x                                   |
|   \\  /    A nd           | Web:      www.OpenFOAM.org                      |
|    \\/     M anipulation  |                                                 |
\*---------------------------------------------------------------------------*/
FoamFile
{
    version     2.0;
    format      ascii;
    class       surfaceScalarField;
    location    "6";
    object      phi;
}
// * * * * * * * * * * * * * * * * * * * * * * * * * * * * * * * * * * * * * //

dimensions      [1 0 -1 0 0 0 0];

internalField   nonuniform List<scalar> 
91025
(
-0.4552889508
-0.03963135126
-0.08819487383
-0.8137559141
-0.3010714957
0.0356030417
-0.2052158169
0.5080505332
0.0376880323
0.4478833852
0.5618799892
0.2219621179
0.6118467321
0.2001042416
-0.05036821929
0.6960875705
0.1007218183
0.04291026489
0.9325469941
0.2445941353
-0.0367359693
0.8343035342
0.1124354705
-0.008604583524
0.4013617204
0.0887042879
-0.04840213113
0.2223723095
0.2068693009
0.1009551613
0.450698861
0.3345269681
0.09420804568
0.5194062588
-0.1325051547
-0.03844224344
-0.009130649706
-0.4740151889
-0.1582556072
-0.4144056428
-0.2437204236
-0.01634878082
-0.3610985409
0.1896656452
0.09508276222
-0.1137879212
0.1501578984
0.02201140442
-0.2192671822
-0.08748483462
-0.09923541747
-0.626755935
-0.2468342932
-0.1317606051
-1.120135725
-0.105047218
-0.06654998646
0.01024373344
-0.001969959741
-0.4334164191
-0.05103513636
-0.1119769245
-0.5960920049
-0.428234685
0.03071856975
-0.145282105
0.7609705777
0.01745063744
0.3058197271
0.8433185586
0.2099665192
0.5478217022
0.4748575698
0.01083764194
0.7176513841
0.3230299154
0.1083699223
0.9174305532
0.5791470815
0.003342561713
0.830278774
0.3025931396
-0.00588846378
0.4606070298
0.1969529846
-0.09317902991
0.2141693205
0.2829079749
0.02781977674
0.2947270841
0.475800811
0.06030639201
0.3823272744
-0.2652848777
0.005066731994
0.08286603107
-0.7867662588
-0.11095792
-0.2525320941
-0.4754433405
-0.05963734979
-0.3442509929
0.195796974
0.01066460078
-0.215259804
0.1693896956
0.008124729147
-0.2721590255
-0.1585987628
-0.05746599031
-0.5975878323
-0.4480611622
-0.120670864
-1.058461609
-0.2523667006
-0.1127718397
-0.0461054012
-0.04919146386
-0.4268338913
0.0397624408
-0.1369113756
-0.2765752894
-0.2712923473
0.04151143644
-0.02168411234
0.8414952001
-0.0214905491
0.1777243658
0.8739976434
0.1727995023
0.4954338704
0.7612825789
0.04801236667
0.7672897914
0.5886559058
0.1713980814
0.8592649327
0.9265099193
0.04602630551
0.7535993366
0.5389428423
0.01310809931
0.5074943085
0.3296993217
-0.1342392951
0.2053249383
0.1987624228
-0.05697920465
0.06316677755
0.3844388229
0.008914098381
0.1630170957
-0.3552470098
0.0855485276
0.1896758885
-0.85796682
-0.03193624337
-0.02718128643
-0.7065082336
-0.1071401214
-0.2933257617
-0.02535847177
-0.09092029735
-0.3552964816
0.04068585849
-0.006787403563
-0.3880210046
-0.1618340023
0.0006154493948
-0.5742551356
-0.5323580146
-0.08752022388
-0.964434249
-0.3895442563
-0.1597104521
-0.1716671903
-0.109089858
-0.3766921481
0.2631873323
-0.1370342697
-0.02311736641
0.1646651114
0.05520303781
0.1237343127
0.8300352989
-0.06683292451
0.1308008521
0.7452775656
0.1147103984
0.4792607268
1.05326078
0.05084353053
0.787916045
0.8397053511
0.1911785865
0.7691080887
1.140777054
0.05872498815
0.6243659991
0.6776620013
0.02313243432
0.4652916942
0.4750199081
-0.1522335121
0.1356016075
0.03840251698
-0.1170753341
-0.1784978432
0.1220571455
-0.0467736744
-0.03308961075
-0.3798735226
0.1527455223
0.258200174
-0.6778832891
0.04949144839
0.2015113
-0.8652953509
-0.130324557
-0.2106378265
-0.4068226784
-0.1899226124
-0.4643583766
-0.1963272523
-0.03324425598
-0.5104481528
-0.08531577214
0.05490817436
-0.5615818236
-0.4375382778
-0.05133587222
-0.8406299187
-0.4161156668
-0.1783938934
-0.3017884064
-0.1473440028
-0.2468863859
0.4730299891
-0.1263040884
0.1396505986
0.5496505684
0.06102993642
0.2295178829
0.7995190131
-0.1213422492
0.1709646571
0.5710032139
0.05874700215
0.5072366847
1.257312632
0.02273489109
0.7839065884
0.9797489481
0.1749695068
0.6760022675
1.157056887
0.01406287109
0.4624911438
0.6332157681
0.007595263712
0.3341089407
0.5655503037
-0.1348060319
0.03691386071
-0.1104077035
-0.09862042177
-0.3242287118
-0.1197342208
-0.08902976799
-0.2153585536
-0.31240395
0.1691800659
0.2198919229
-0.3303836922
0.1040427302
0.3244256576
-0.8906940019
-0.09824270782
-0.09140194473
-0.7656748372
-0.236292463
-0.4582642472
-0.5210631694
-0.09541859619
-0.6008556154
-0.04050005218
0.02466844358
-0.5970431791
-0.296436286
-0.04433884672
-0.7362216632
-0.3211777126
-0.1572689091
-0.369349871
-0.1418309798
-0.04118387026
0.5079245084
-0.1097312297
0.1601379227
0.5063977739
0.04695901584
0.2829420494
0.78464308
-0.131991563
0.2862472101
0.4324065563
0.03359901175
0.5488409901
1.319642403
-0.009896746942
0.7106443814
0.9636495772
0.1334454173
0.5618025114
1.060437686
-0.05371671265
0.2833509065
0.4489841525
-0.0337118481
0.1229020657
0.5619135614
-0.1015666139
-0.08718493168
-0.178598548
-0.04465346741
-0.3582768501
-0.1630701177
-0.1350787225
-0.3018997646
-0.1655269585
0.09890317052
0.0983340105
0.04946557483
0.09232277359
0.3194551374
-0.7469010222
-0.04511218425
0.06300344913
-0.9141830338
-0.220269223
-0.3145285111
-0.8086203586
-0.1772989591
-0.6059322876
-0.1506461297
-0.08330763184
-0.6513480473
-0.2609952268
-0.0743416769
-0.6692889229
-0.2325832123
-0.1154320221
-0.3728339174
-0.093303205
0.1199878296
0.3964201474
-0.07684626334
0.1474632199
0.140894782
0.06625619169
0.332648632
0.7764695534
-0.1014940039
0.4363910951
0.3733795581
0.05348555317
0.5954012881
1.278895211
-0.03181725965
0.5986460002
0.8124648914
0.094088686
0.4494462394
0.9291295392
-0.1148469326
0.1701699688
0.210031618
-0.04875772141
-0.03895969683
0.4927563888
-0.05416766107
-0.1834997639
-0.1704361659
0.02397439526
-0.3156926405
-0.004731653587
-0.1530017508
-0.3321383649
-0.0720977053
0.002638396612
-0.1208605467
0.283471543
0.04024970655
0.1575021145
-0.5486697368
0.02081902961
0.1632665222
-0.7923501707
-0.1464917246
-0.1295722939
-0.9682836157
-0.2414692333
-0.5363085627
-0.3744573366
-0.2236873627
-0.6853897787
-0.3781031634
-0.1208687988
-0.6406873546
-0.197802932
-0.05193114722
-0.3411643402
-0.02277585403
0.2494391672
0.2911439237
-0.03932665423
0.2177839415
-0.2077769706
0.1216642553
0.4312475447
0.804483686
-0.05422192581
0.5852510683
0.3590134645
0.08364111596
0.6030474232
1.168050097
-0.04361224806
0.4560732281
0.5580957067
0.05088673784
0.3007193015
0.7761632729
-0.1305914718
0.04994858793
0.007583471902
-0.031741074
-0.1690372891
0.4630386538
-0.02794944377
-0.2468016874
-0.0712589399
0.04232875179
-0.2508052621
0.2485872312
-0.2240015475
-0.3260745533
-0.1087225369
-0.1256864299
-0.3253452821
0.2811091489
-0.04791908713
-0.03917900235
-0.3890471683
0.06200287045
0.1636776723
-0.4566770127
-0.06112745219
0.007005419074
-0.9354598969
-0.2665478229
-0.4000384936
-0.5453476455
-0.3181653306
-0.6432406927
-0.5609046178
-0.1540035366
-0.5772034178
-0.1787151129
0.02523740792
-0.294922551
0.05671048458
0.3067327158
0.3454686247
-0.02823488942
0.3541254518
-0.3083125383
0.1585648956
0.5514229473
0.831806219
-0.04821351832
0.6626127954
0.2867927813
0.09170365441
0.5783819255
0.9432592078
-0.06346322204
0.3376798109
0.1594403218
0.0168699777
0.1978909386
0.5810847833
-0.09268182264
0.02113812307
-0.0920421442
0.02806441099
-0.1690730035
0.5034904094
-0.005602177196
-0.2556433276
0.03991011974
0.03743194943
-0.2499403024
0.4149829098
-0.1821236362
-0.3597942463
-0.2723104165
-0.1763166632
-0.4625632337
0.0759065165
-0.1090467858
-0.2319138248
-0.3423853818
0.06181426186
0.05978871138
-0.1163324426
-0.008918531119
0.03579466875
-0.7406194963
-0.2357573248
-0.3057020508
-0.5658869843
-0.3343842272
-0.5377050669
-0.70411822
-0.1645993766
-0.4856946188
-0.154579865
0.08122394352
-0.2394641598
0.1078512053
0.3758168089
0.5290786608
-0.04521152565
0.5196143688
-0.1980746305
0.1302122123
0.6696277407
0.7777122352
-0.07132638018
0.6552395975
0.03145641825
0.07986449826
0.5029527405
0.5945564511
-0.06784731777
0.24883746
-0.3559386232
0.001598280743
0.1366517398
0.3527798054
-0.04574082259
0.01345880557
-0.1609030407
0.05404237274
-0.1671464023
0.5582484137
-0.05724425928
-0.319602883
0.063136412
-0.02680326716
-0.3521982844
0.4427302259
-0.1900442737
-0.4102073837
-0.4603659427
-0.187318339
-0.471365298
-0.1230770632
-0.1694865189
-0.2963809605
-0.3942401089
-0.005663481767
-0.05502099264
0.107098577
-0.01637656719
-0.02208015272
-0.536838613
-0.1828697773
-0.2462688465
-0.4531973979
-0.2863974004
-0.4136191286
-0.7337223013
-0.1576176942
-0.3694618692
-0.09731459178
0.07353846275
-0.1765474049
0.1079334058
0.4367674098
0.6936233767
-0.07193022712
0.5855778917
-0.1390174864
0.08737185455
0.6754573612
0.603083999
-0.0947989973
0.5635671992
-0.3068236278
0.08302563285
0.4062093111
0.2459317485
-0.04843612572
0.2563956408
-0.7998466469
0.01931398524
0.2071292472
0.1404714157
-0.01732229316
0.08640289781
-0.291879054
0.024888599
-0.1339099942
0.4821059712
-0.1260012685
-0.394678855
-0.1222384538
-0.08504382529
-0.5150750782
0.326188003
-0.1370089155
-0.489685444
-0.5828308843
-0.1299798746
-0.4122593976
-0.1852612194
-0.176041671
-0.2608476659
-0.4855382773
-0.09354024342
-0.1596204059
0.13075276
-0.05915075216
-0.1377075151
-0.4526635507
-0.1276128488
-0.2342215045
-0.3390956473
-0.2031583319
-0.302687898
-0.6855161728
-0.1607944545
-0.261694761
-0.01381005325
0.0007702581589
-0.1378129798
0.04561989939
0.515020387
0.6722160088
-0.08209257314
0.5687355548
-0.2936725883
0.04978572687
0.6051331602
0.3786720607
-0.06821125495
0.4345261215
-0.5998640804
0.1153340869
0.3300170494
0.06897445219
0.01125982579
0.321728169
-0.9683699383
0.07714480618
0.326396967
0.01626503588
-0.01397872664
0.1429946629
-0.5177127379
-0.04024224686
-0.1523469372
0.1752100433
-0.1876552211
-0.49840932
-0.5022466713
-0.1212777364
-0.661700935
0.1381960724
-0.1149274808
-0.5681904393
-0.5756238369
-0.08097244657
-0.3511590717
-0.07733413346
-0.1641041213
-0.1991172715
-0.52629803
-0.1654402406
-0.1979677427
0.01715632884
-0.1161990568
-0.2343268613
-0.5120138535
-0.09240530897
-0.2446327643
-0.2755965304
-0.1255349372
-0.2116559903
-0.6251294465
-0.170119104
-0.1704976094
0.03684682498
-0.1248941405
-0.1342354986
-0.04352847986
0.4990821673
0.5232311808
-0.08080051743
0.4667314733
-0.5759968065
0.04643245927
0.5020015254
0.2327045891
-0.02626186504
0.3315699337
-0.7746986803
0.1258278091
0.2781704356
0.09174655104
0.04527458387
0.3832299144
-0.885265607
0.1259698948
0.4355128834
-0.01372247477
-0.01531916543
0.1915677327
-0.7883838807
-0.08539626414
-0.150048276
-0.2496670628
-0.186832773
-0.504319918
-0.944165548
-0.1214524593
-0.6908085199
-0.06499398711
-0.09912719186
-0.589922408
-0.53779264
-0.05291235015
-0.3370032051
0.09202587377
-0.1217028553
-0.1801061067
-0.4866647959
-0.1818081124
-0.22220678
-0.1031665289
-0.1518330204
-0.2788596898
-0.6294201043
-0.07722537833
-0.2218980673
-0.2428077333
-0.06663381616
-0.1109318828
-0.556825059
-0.1623680426
-0.09082819853
0.06266257393
-0.2149774122
-0.1539478394
-0.1150207854
0.47776764
0.3911791864
-0.06960996993
0.4239024254
-0.8001700265
0.05716993686
0.4805874066
0.1985158476
0.00475775562
0.3150475773
-0.8894801534
0.1023886802
0.2598193614
0.1499638331
0.04461323512
0.3866312824
-0.8063761525
0.1431362034
0.4011265327
-0.04897994883
0.00439017121
0.1234948488
-1.074967454
-0.07943471828
-0.1568089827
-0.5615238753
-0.1213005264
-0.4338854094
-1.242076692
-0.09920770487
-0.6066570161
-0.2710421447
-0.1363799718
-0.5694713897
-0.5925367953
-0.06890844298
-0.387668841
0.1757339625
-0.08883361165
-0.2332992523
-0.4352597701
-0.1528314753
-0.2563620048
-0.1236001301
-0.1616109595
-0.2832517134
-0.6642112438
-0.07338593846
-0.1755436674
-0.1732482547
-0.0251323432
-0.01585762013
-0.4714112484
-0.1198352082
-0.03164608463
0.07765811365
-0.2298038282
-0.1935015055
-0.1368424226
0.3768469359
0.3979044198
-0.07250679097
0.3754883333
-0.8433526107
0.04922977668
0.4546954844
0.204476136
-0.009786664581
0.3144078654
-1.019697661
0.04858007725
0.2399643974
0.04731965383
-0.001696879848
0.3248836508
-0.9258070491
0.1148120845
0.2785505584
-0.1848489344
0.02458347404
0.0363748131
-1.336021054
-0.05379906025
-0.1190709317
-0.5940809057
-0.06459827968
-0.2804328986
-1.300627643
-0.08281122583
-0.4257713831
-0.4424212763
-0.1803332262
-0.4669142337
-0.8023161192
-0.1075932418
-0.4197657152
0.07511101285
-0.07039400057
-0.3088708851
-0.4281277667
-0.1142543809
-0.2836209892
-0.02354678388
-0.1422711269
-0.2454076662
-0.5590339252
-0.08450635502
-0.1137480122
-0.03102905048
0.008443316679
0.05160397852
-0.3604128219
-0.05326518353
0.02400760582
0.1136229004
-0.1589231048
-0.2353339087
-0.114380663
0.3409227557
0.5022844431
-0.07591628295
0.3704368572
-0.7726016722
0.03125201266
0.4407568757
0.1974080096
-0.02300762342
0.332234961
-1.158000796
0.03280680936
0.2379042672
-0.200407598
-0.02674844313
0.241526668
-1.209989376
0.08795933006
0.1512761689
-0.4022495526
0.04517286321
-0.02464979413
-1.518077398
-0.02547038875
-0.1067211988
-0.4887002907
-0.04243369227
-0.2067285961
-1.222286672
-0.0711044265
-0.3084065928
-0.5452222859
-0.1707673477
-0.3562533251
-1.063645091
-0.1172539278
-0.4032895916
-0.1489604002
-0.07786605389
-0.3644841262
-0.5043491297
-0.09766639138
-0.318330311
0.0991993107
-0.1162475724
-0.2290975936
-0.3880300578
-0.08101626722
-0.074207388
0.1479372888
0.02144331892
0.08110397579
-0.2481537853
0.002748155281
0.05585385097
0.1542311309
-0.08584251315
-0.2707413559
-0.07183187708
0.2374054599
0.5953266835
-0.07527305601
0.2582582991
-0.7244098378
0.0009010376688
0.3033888567
0.1925707801
-0.008325019322
0.2504209484
-1.219648614
0.04173232548
0.2092767145
-0.3655031479
-0.02943418559
0.1731265992
-1.4249395
0.06462984443
0.1095055296
-0.5376796022
0.03628451269
0.01486337515
-1.581446831
-0.03892925015
-0.07043362881
-0.4267073002
-0.09032930459
-0.1764599575
-1.181669035
-0.08091810901
-0.228624926
-0.5671556505
-0.1045303821
-0.2238242115
-1.20041534
-0.08431064191
-0.2719074811
-0.3427663635
-0.09890787519
-0.2976183339
-0.6267505033
-0.1073066037
-0.2946017993
0.1443909338
-0.09502396529
-0.2000380697
-0.2692466733
-0.07376293641
-0.04698792556
0.2899785438
0.01076577412
0.08595030955
-0.160737399
0.01152972848
0.06807396629
0.1875548477
-0.04738136117
-0.2724484422
-0.04824874364
0.2070554409
0.5868036683
-0.0691780406
0.1690261683
-0.7801493822
-0.004259066038
0.1822596709
0.2275219759
0.0508023945
0.1723051675
-1.174123272
0.09962666573
0.1875358816
-0.2918589002
0.01864455716
0.1390864934
-1.428112726
0.08480630068
0.117016853
-0.5141504174
0.0508661879
0.07725327569
-1.509190231
-0.03259662043
-0.06533518762
-0.5272115359
-0.1302881499
-0.2260937013
-1.281281146
-0.06968037005
-0.2439820269
-0.5211082433
0.006499011831
-0.1441373633
-1.117181097
-0.001337731949
-0.1303595354
-0.3723998708
-0.0973806376
-0.1971361574
-0.7205653304
-0.1155342529
-0.2561586351
0.07451662234
-0.08028672409
-0.1909609768
-0.2621566835
-0.05460260153
-0.05388413423
0.3473002576
-0.0164418279
0.05236289768
-0.1127588741
-0.01097913218
0.05365738779
0.2213256083
-0.04886286011
-0.2502196806
-0.03564340546
0.09213957579
0.4775094039
-0.05734419919
0.01149615649
-0.8920936933
-0.01422887749
0.01886628109
0.2694030008
0.08690091205
0.04883817715
-1.027544579
0.1144211604
0.106747634
-0.006184195944
0.04157167789
0.1020854754
-1.205360809
0.06960472033
0.121878463
-0.3434949863
0.03450855961
0.1304625928
-1.372670877
-0.04274957623
-0.01795142656
-0.6961578122
-0.1477554175
-0.1929991526
-1.473283635
-0.06642529474
-0.1995239024
-0.4402865817
0.06741790184
-0.05270773899
-0.8665407117
0.0564053197
0.007832531675
-0.2014936784
-0.0729782252
-0.05702680725
-0.732020912
-0.1076147432
-0.1408544247
-0.04116072679
-0.0639651579
-0.12891163
-0.3278852965
-0.04335651468
-0.04457548177
0.3425087469
-0.02735459482
0.02736183957
-0.0914690677
-0.03585098271
0.04172440971
0.2704360799
-0.04714910063
-0.214872152
-0.03555415937
0.06077404427
-0.02363487285
0.01864769095
0.007414078506
0.01057362733
0.05476940229
0.0373080835
0.053207755
0.07717912636
0.03305371279
0.06206179756
0.01726265012
0.07106973253
0.01861478476
0.04508920842
-0.03193914122
-0.04677740304
-0.06080847168
-0.1233169922
-0.005134217811
-0.1136806074
0.0560220773
-0.01410989037
0.03662198658
0.03050591663
-0.02539168328
-0.01176209134
-0.04730484904
-0.06091406288
-0.02916991326
-0.06279600013
-0.01130832412
-0.03086135136
-0.02074528899
-0.007417473427
-0.02507361569
0.004246947935
-0.03254737874
-0.01688947931
-0.4018621971
-0.1664132142
-0.240297872
-0.659876441
-0.3917096836
-0.01447679202
-0.1983632316
0.4597234247
0.05031241836
0.2892216459
0.5848128331
0.4353925912
0.5611332033
0.4181941582
-0.07848913657
0.7113864909
0.3168265072
0.1237867906
0.9122832647
0.3926574752
-0.001243336877
0.8910996741
0.1249398177
0.01105091518
0.5306330502
-0.07817144531
-0.1191668676
0.1986321911
-0.003270029732
0.09353910037
0.251553878
0.2598345661
0.1379756003
0.4161400558
0.08390204624
-0.01615543873
0.1725328697
-0.3208417254
-0.2573934732
-0.2640206565
-0.4208547272
-0.1733690508
-0.489187001
-0.07724273283
0.01527965934
-0.3226762554
0.1691266564
0.00376094461
-0.2541051431
0.1122024449
-0.1195648879
-0.5187277646
-0.212918601
-0.2149046051
-1.012019379
-0.3301129689
-0.1706860622
-0.2093484208
-0.06063238151
-0.3995691254
-0.2157895295
-0.2422514645
-0.4199269342
-0.5502167754
0.02548264785
-0.07487070623
0.6504437038
-0.0427259788
0.2331774193
0.7970859552
0.3285347349
0.4962987569
0.6630008497
-0.01596344237
0.6814145
0.5497130758
0.2061400822
0.8103682926
0.7482682244
0.04514195858
0.7944257576
0.3551555382
0.02406036602
0.5689762538
0.007445501981
-0.154473286
0.2741391232
0.002317686479
-0.006683540865
0.1846496347
0.3537050127
0.0435154885
0.2511375847
0.07548940092
0.01225358668
0.1349300407
-0.520645962
-0.1615513014
-0.1419504828
-0.698241615
-0.1845343953
-0.3683209819
-0.1963203101
-0.08146420287
-0.3492168648
0.1912682011
-0.0441035039
-0.3710077776
0.1389012188
-0.1017884238
-0.5846451093
-0.3669663011
-0.1963619258
-0.9451802891
-0.5483132252
-0.2015430366
-0.3554903374
-0.09819960841
-0.4081004525
-0.0432031251
-0.2113344456
-0.125746257
-0.35457478
0.1464928796
0.107184956
0.644596729
-0.1421406202
0.2037825053
0.6962838846
0.2025269409
0.4676139977
0.7979068949
0.0160118032
0.672776609
0.6805603171
0.2849684711
0.6832164348
0.9765971095
0.08304472571
0.6411072928
0.578477912
0.0580320631
0.5712431033
0.2457587026
-0.1841330135
0.3593369077
0.02287155883
-0.1202625423
0.09442105404
0.2270516229
-0.1102474843
0.02722166317
-0.05195889756
0.07181959414
0.06758008962
-0.5375569609
-0.05048649708
0.01989185654
-0.8168934897
-0.1853849326
-0.1864574125
-0.3882393478
-0.2287230896
-0.376888875
-0.01314919119
-0.1251196167
-0.569226566
0.04363712774
-0.07772972803
-0.7063342714
-0.4251720676
-0.1503350812
-0.839645375
-0.5750724472
-0.199966929
-0.3908441655
-0.1302069151
-0.3922789364
0.2947414754
-0.1351782847
0.1142719411
0.1631047541
0.2893146799
0.2749501477
0.625752327
-0.1893617774
0.2279320229
0.5134018043
0.1142381796
0.4927430551
0.9391676503
0.02113069312
0.6884821097
0.7747124539
0.3109274786
0.5775579116
0.992059675
0.08816513368
0.4694066712
0.648831169
0.07175677708
0.4828640258
0.5400402817
-0.1745913556
0.3574072641
0.06520451568
-0.1904776047
-0.02297935047
-0.07876697723
-0.2429765796
-0.1899867408
-0.2769311493
0.1006932988
-7.370298819e-05
-0.4326281838
0.04964635855
0.1627395728
-0.7782133846
-0.1750221272
-0.02610277646
-0.6297081966
-0.3523026617
-0.3716903993
-0.4222336224
-0.2269790149
-0.7271244372
-0.1699496217
-0.06805537168
-0.7949456673
-0.4027871372
-0.09343872131
-0.720745004
-0.3801097249
-0.1662033368
-0.3073956655
-0.1321889361
-0.2956517189
0.6043117839
-0.1204400746
0.190360143
0.6298526983
0.3067128572
0.353679284
0.7206789881
-0.2314684878
0.3132948293
0.4094946495
0.06523453474
0.5411820981
1.090995397
-0.01692728321
0.6762845125
0.8183683029
0.2955581575
0.5103682736
0.9272430404
0.01970392595
0.3444680288
0.5670300391
0.03182728346
0.3290231265
0.7504486495
-0.1777509953
0.2320122586
0.08128381551
-0.1541225424
-0.09400773146
-0.3437141655
-0.3369069903
-0.2959506157
-0.4824378981
0.09936309068
-0.1028250257
-0.2568858299
0.06345965621
0.1770095265
-0.6236738385
-0.1243169003
0.08390198599
-0.7747407959
-0.3944470388
-0.3084220528
-0.877241859
-0.3220788299
-0.7644847483
-0.4667997042
-0.1378539582
-0.8211605052
-0.3678912812
-0.07850158412
-0.6337261249
-0.08475154091
-0.1104548438
-0.1510625418
-0.1083027234
-0.09255144999
0.7178949255
-0.1670448956
0.1653506979
0.7289211203
0.1769912828
0.3503513519
0.8586085404
-0.2139190057
0.4218209808
0.4082591661
0.08579227341
0.5809764732
1.201307824
-0.04230336012
0.5974512459
0.8019696114
0.2501606154
0.4641490736
0.8776388827
-0.07111871838
0.2720338335
0.4471513886
-0.05594030271
0.1213974688
0.7836741463
-0.198554059
-0.006716239842
0.04747230221
-0.07709391609
-0.1605709825
-0.409996786
-0.3570705937
-0.2843117539
-0.5513944466
0.006211426559
-0.1898643587
-0.07503887025
-0.01330340145
0.07335352088
-0.4357955531
-0.08961179588
0.09837800776
-0.7041051467
-0.3349351482
-0.1954910196
-1.166390709
-0.394312353
-0.6311335517
-0.7130801471
-0.2705139048
-0.7376577596
-0.3761543949
-0.12891573
-0.5782679106
0.1766017176
-0.07364845917
-0.009032213586
-0.0636098737
0.1138524491
0.5771085478
-0.2101105231
0.1227867283
0.4029693872
0.0807821336
0.3366059385
0.9114373577
-0.1539784059
0.5196946479
0.4206510598
0.1723232308
0.5966804324
1.21733066
-0.05201736601
0.5102380654
0.6864974947
0.2011914371
0.420671577
0.8852087589
-0.1617871734
0.2344606819
0.3099813814
-0.110729028
-0.07384570961
0.6695874889
-0.2151612422
-0.2513296277
-0.02607043117
0.01174835727
-0.1835142205
-0.1696182684
-0.3570927506
-0.2044662969
-0.4984765889
-0.08834369319
-0.2527555429
0.02995690855
-0.1510417569
-0.1174909979
-0.3237087396
-0.04083981531
-0.01329304106
-0.4735950219
-0.2104113828
-0.09584781056
-1.167088236
-0.3917212514
-0.3815888355
-0.7973472012
-0.4107538095
-0.5608941234
-0.4507684297
-0.2263549533
-0.5626673252
0.2608020347
-0.0689284408
0.03945326074
-0.0135652641
0.307307493
0.3405853697
-0.1860880205
0.1617797938
-0.1032467718
0.09984001688
0.3859932809
0.851290432
-0.06704921202
0.5940413439
0.4010994689
0.261339288
0.5853230357
1.128189618
-0.05635817591
0.4182712135
0.4638267616
0.1198971486
0.3415386982
0.8752082859
-0.1872661448
0.1514622845
0.1520809658
-0.09677232698
-0.2339157073
0.4827461146
-0.2156337524
-0.4411630047
-0.0924186685
0.03095033291
-0.2291471115
0.2340873182
-0.4295031629
-0.1420233096
-0.3899092767
-0.256256843
-0.2770954534
-0.01265929241
-0.3333549657
-0.2993662611
-0.3625090308
-0.04810655953
-0.1782277772
-0.2094459324
-0.09615447374
-0.04079597121
-0.8928416373
-0.3381868518
-0.1340446129
-0.6822174005
-0.4813767295
-0.3205467576
-0.5820705658
-0.3145389025
-0.536504971
0.1071696339
-0.0812528762
-0.06314375563
0.02466036648
0.3799020143
0.2668389768
-0.1396239995
0.2835525679
-0.4208318565
0.2015392031
0.504257672
0.7838068113
-0.07029174226
0.6365233758
0.3208518849
0.263747392
0.5469249609
0.9593533165
-0.1114411323
0.3600026534
0.1269931913
0.03326378339
0.2599422584
0.7157031229
-0.1465239941
0.07284353232
-0.06683835294
0.00491720603
-0.2729292891
0.3283853615
-0.1558730382
-0.4813666642
-0.1290172722
0.02563622924
-0.2902735745
0.5428849528
-0.342147088
-0.1730015092
-0.3488352156
-0.2874325954
-0.2978883774
-0.1600367202
-0.4000809042
-0.3959009174
-0.5604084204
-0.07523843936
-0.3305677542
-0.02171569188
-0.03969637804
-0.0714315268
-0.5322975827
-0.2591452538
0.0004948687027
-0.415954669
-0.4561639824
-0.1487932126
-0.7354106926
-0.3458109679
-0.4728105428
-0.1987557403
-0.09145618419
-0.2714089606
0.04739246221
0.412641117
0.4225506857
-0.1096282792
0.4750411043
-0.3928173391
0.2448887187
0.6605262727
0.74316877
-0.1293005017
0.637434088
0.1349572929
0.1906153174
0.4734873486
0.7153470441
-0.1455048
0.3122296777
-0.2987228921
-0.02169580127
0.1633110331
0.4157619005
-0.06636225208
-0.01075815663
-0.3069136692
0.06731345643
-0.2615849284
0.2856463218
-0.1701522859
-0.4789810081
-0.1499739447
-0.08529629615
-0.4222573662
0.6426641141
-0.3805701075
-0.3065357847
-0.3609779518
-0.3189477883
-0.3021775738
-0.2558691511
-0.4288384146
-0.3555852311
-0.7584577325
-0.1785556701
-0.3742952425
0.04621799962
-0.09484733411
-0.1532116744
-0.2592923629
-0.2236423097
0.008470533978
-0.1478263282
-0.3744266215
-0.06045734935
-0.8254178739
-0.3260300094
-0.3461696151
-0.4907042032
-0.1088190495
-0.4768187819
0.03840260445
0.4372760512
0.6298452208
-0.1381552764
0.5748142669
-0.2751596646
0.1941908758
0.720010355
0.6898774111
-0.1950042059
0.5541187507
-0.169796959
0.1398918016
0.379141174
0.4320491022
-0.1389345647
0.2816775122
-0.6597929027
0.02354886375
0.15438874
0.1397949228
-0.003975570008
0.01172135791
-0.5177681732
0.05202071856
-0.1723988386
0.2768056157
-0.2286542746
-0.424822591
-0.2821303795
-0.1886038671
-0.564028325
0.4923704552
-0.339921147
-0.4931582744
-0.4120762437
-0.2328524472
-0.3115116919
-0.1789485111
-0.3567177493
-0.2406352752
-0.8221697118
-0.2718369529
-0.3154483337
-0.01258818473
-0.2139981232
-0.2678319917
-0.2239354988
-0.2194209404
-0.135500658
0.01685722567
-0.2697874334
-0.07123837942
-0.7937776075
-0.2801381603
-0.1807700017
-0.575481061
-0.1395494495
-0.5582990894
-0.009770223833
0.5236611096
0.6617484377
-0.1732263487
0.6271096221
-0.3273193191
0.1000748658
0.6955148005
0.5298705811
-0.1689953125
0.4505124011
-0.5199993115
0.147481303
0.2798205547
0.1923751136
-0.04224321315
0.2586243699
-0.8270158443
0.1611565465
0.1943969794
0.04065119986
0.03677969402
0.05824165089
-0.6545058066
-0.04599457119
-0.1274413143
0.1769611448
-0.3103296131
-0.4309890707
-0.5816622207
-0.2638568457
-0.6862580175
0.168929511
-0.3093887419
-0.6523762641
-0.4887848406
-0.1627873006
-0.3594210646
0.04713146886
-0.2701203558
-0.129942483
-0.6903294919
-0.3378919342
-0.2103890918
-0.1309814239
-0.3308305011
-0.3391895799
-0.4053874012
-0.2410724213
-0.3152446631
0.06933288857
-0.1930779208
-0.1397203439
-0.6178887955
-0.2343684946
-0.00437495139
-0.3836213797
-0.190906592
-0.468224023
-0.07016737514
0.5348443561
0.5204046802
-0.1930937391
0.5624230457
-0.5765001756
0.06844925923
0.5865826211
0.3211266112
-0.1021034606
0.3552169598
-0.8508315451
0.1464084545
0.2344770406
0.07659559806
0.01157459369
0.2522082624
-0.8373759829
0.2790794681
0.2541713483
0.08606872548
0.03231680001
0.1152020935
-0.7801828617
-0.1413730455
-0.1135133685
-0.08985777949
-0.3282042803
-0.4205849336
-0.9632521655
-0.2554278129
-0.6701429017
-0.1808820121
-0.2646001063
-0.6835777695
-0.5954215947
-0.1284768656
-0.4112734413
0.2732400592
-0.1904261855
-0.1154892944
-0.4922692569
-0.3207850442
-0.1426194592
-0.1865919497
-0.3675810686
-0.3242983415
-0.6323037691
-0.2589615458
-0.4130028033
0.0467245781
-0.1473252932
-0.1905366484
-0.3812631821
-0.1900079276
0.1278794928
-0.008374084561
-0.2190772929
-0.288727241
-0.1200216141
0.5292893736
0.3628191639
-0.1536350212
0.5258957607
-0.8478010474
0.1008004755
0.5234939797
0.1714618899
-0.024775683
0.3499698245
-1.054455355
0.1121742191
0.2576706437
0.03270858817
0.01228493815
0.2631313582
-0.8506627103
0.2991615962
0.2266417597
0.07501419453
0.0271790942
0.05904703007
-1.003057828
-0.1597780366
-0.1728120755
-0.3805289547
-0.2290059826
-0.4212390044
-1.247598806
-0.189631189
-0.5568912154
-0.397390148
-0.2662035805
-0.5974162225
-0.7283143098
-0.170504521
-0.477136398
0.3041861545
-0.165550875
-0.2167498995
-0.3731226722
-0.2584267912
-0.135577571
-0.1172101821
-0.3255643598
-0.2527863844
-0.7303785596
-0.2564778135
-0.3825362299
0.02448625215
-0.1290253942
-0.1870070879
-0.2001106083
-0.1353001202
0.1716579104
0.3297593854
-0.206016238
-0.1526395168
-0.1284822792
0.4119624288
0.3675820174
-0.1140385709
0.4400765004
-0.9504763951
0.1400672023
0.4658908558
0.1641398895
-0.04109294528
0.3622092726
-1.125239862
0.02720899699
0.2968396287
-0.05653883408
-0.09065461489
0.2506125319
-1.019341589
0.1924000022
0.1343499812
-0.1371922993
-0.0003521375091
-0.04012525889
-1.318071568
-0.1287864189
-0.1990316116
-0.5815076016
-0.1164549167
-0.3301888733
-1.310144556
-0.1259802821
-0.3606781877
-0.3899673691
-0.3091420816
-0.4209731755
-0.8819445676
-0.2487988387
-0.4877504881
0.0784278581
-0.183879192
-0.3446272767
-0.4013643459
-0.1861650469
-0.1678254202
0.05085466479
-0.2397023756
-0.1493968918
-0.6119189316
-0.2396611401
-0.2434177209
0.03986415521
-0.1168184123
-0.1278084981
-0.1677089614
-0.08646686656
0.1390407622
0.4270324562
-0.1298325941
-0.1310528797
-0.09534976821
0.35065272
0.4929777934
-0.08124895231
0.4170251223
-0.872648369
0.1430402952
0.4659955374
0.2620740769
-0.06239204379
0.3686305785
-1.097132301
0.008607457596
0.3125865745
-0.1950844413
-0.1274542266
0.2088860215
-1.255230479
0.1058966427
0.03221493374
-0.4265451168
0.0221939156
-0.1074983792
-1.597095734
-0.05065808201
-0.1890446618
-0.6267033052
-0.03933742799
-0.2659659272
-1.232277733
-0.09472384386
-0.2634488807
-0.2738085862
-0.2817009634
-0.3137333799
-0.9817304324
-0.2709123988
-0.4402697744
-0.224323256
-0.2050308226
-0.3949271838
-0.5493827608
-0.1561842366
-0.2242966233
0.2125033411
-0.1676417283
-0.1010392101
-0.3967260798
-0.2060649743
-0.1205967015
0.09533700983
-0.1110959661
-0.06874584758
-0.2461262796
-0.05069204581
0.09364490096
0.3212439284
-0.06285730203
-0.1972087607
-0.03939411093
0.2349216959
0.6237054946
-0.07579175303
0.3332967227
-0.7568465251
0.08666653827
0.3520181656
0.3682988103
-0.05184443167
0.263569279
-1.087735921
0.02219563602
0.2481574209
-0.2684274646