/*--------------------------------*- C++ -*----------------------------------*\
| =========                 |                                                 |
| \\      /  F ield         | OpenFOAM: The Open Source CFD Toolbox           |
|  \\    /   O peration     | Version:  5.x                                   |
|   \\  /    A nd           | Web:      www.OpenFOAM.org                      |
|    \\/     M anipulation  |                                                 |
\*---------------------------------------------------------------------------*/
FoamFile
{
    version     2.0;
    format      ascii;
    class       volScalarField;
    location    "6";
    object      rho;
}
// * * * * * * * * * * * * * * * * * * * * * * * * * * * * * * * * * * * * * //

dimensions      [1 -3 0 0 0 0 0];

internalField   nonuniform List<scalar> 
30538
(
1.271530011
1.289479514
1.289891269
1.289942456
1.289940919
1.289931
1.289964854
1.28997469
1.289947154
1.289974197
1.29014136
1.290270599
1.290186159
1.290032973
1.290021754
1.290094638
1.290067352
1.289889221
1.289791823
1.294500222
1.271581109
1.289560392
1.289870828
1.289894331
1.2899161
1.289923669
1.289957801
1.290002669
1.290027319
1.290048429
1.290138433
1.290229175
1.290200994
1.290100589
1.290059646
1.290070015
1.290045148
1.289934578
1.289888413
1.294519617
1.271787633
1.289644476
1.289836979
1.289829447
1.289879713
1.289898975
1.289924231
1.290000689
1.290088313
1.290111046
1.290103073
1.290145641
1.290192503
1.29016217
1.290079853
1.290001697
1.289974918
1.289965465
1.289995356
1.294622502
1.271868901
1.289717034
1.289820929
1.289801558
1.289872556
1.289895263
1.289902277
1.289984912
1.290113957
1.290148616
1.290076896
1.290077311
1.290186192
1.290219329
1.290096872
1.289935026
1.289903033
1.289985734
1.290087284
1.294613228
1.272284807
1.289732861
1.289829221
1.289814746
1.289883349
1.28990275
1.289903641
1.289967199
1.290093966
1.290145134
1.290081043
1.290065462
1.290183265
1.290245138
1.290117789
1.289917781
1.289868791
1.289978702
1.290109451
1.294760416
1.272461855
1.289684642
1.289838
1.289842586
1.289892184
1.289903803
1.289917227
1.289956557
1.290038921
1.290107875
1.290118818
1.290111622
1.290180223
1.290228743
1.290133158
1.289952818
1.289886113
1.289948091
1.290049165
1.29466854
1.273163288
1.28962308
1.289834804
1.289862281
1.289882686
1.289888381
1.2899223
1.289944589
1.289980518
1.290066482
1.290160362
1.290170986
1.29016424
1.290173885
1.290130024
1.290016567
1.28993701
1.289897989
1.289933694
1.294775832
1.273485342
1.289575473
1.289829277
1.289868101
1.289862115
1.289861625
1.289908486
1.289924527
1.289939806
1.290031745
1.290180908
1.290199395
1.290133609
1.290101031
1.290100193
1.290064502
1.289978846
1.28984926
1.289812172
1.294605324
1.274544734
1.289591233
1.289834264
1.289863838
1.289838866
1.289838442
1.289883958
1.289901984
1.289926822
1.290006534
1.290159766
1.290188389
1.290104053
1.290042067
1.290050784
1.290061977
1.289986192
1.289813373
1.28973018
1.294634913
1.275039964
1.289648144
1.289846852
1.289843293
1.289819533
1.289831161
1.289872052
1.289896056
1.289936343
1.289983762
1.290097768
1.29014245
1.290086736
1.290016174
1.289996057
1.29000542
1.289951771
1.289803162
1.289719676
1.294372409
1.276416314
1.289713018
1.2898517
1.289814415
1.289808478
1.289844859
1.289886552
1.289918912
1.289955536
1.289955985
1.290018112
1.290077752
1.290079039
1.290015542
1.289945272
1.289913679
1.289888947
1.289818065
1.289783964
1.294277875
1.277007062
1.289750116
1.289847707
1.289792895
1.289804945
1.28986627
1.289921292
1.289952428
1.28996753
1.289929774
1.289953519
1.290014183
1.290056671
1.290010018
1.289899826
1.289826104
1.289826222
1.289841863
1.289871002
1.293938618
1.278704333
1.289782167
1.289846837
1.289794296
1.289814646
1.289877466
1.289943208
1.289967891
1.289963077
1.289918847
1.289922423
1.289959433
1.290001274
1.289970673
1.289858442
1.289770048
1.289778746
1.289856279
1.289929934
1.293683122
1.279395651
1.289799611
1.289862191
1.289821973
1.289832213
1.289873159
1.28992698
1.289952546
1.289947446
1.289922209
1.289929323
1.28991806
1.289918614
1.289899609
1.289822235
1.289744493
1.289748682
1.289842649
1.289937407
1.293224935
1.281398803
1.289826539
1.289885309
1.289858257
1.289852072
1.289859391
1.289883485
1.289921537
1.289941534
1.28993625
1.289940567
1.289881049
1.289831462
1.289821558
1.289789268
1.28974034
1.289732216
1.289806515
1.289889143
1.292780416
1.282151141
1.289834704
1.289890932
1.289874098
1.289867326
1.289853638
1.289857107
1.289907539
1.289948857
1.289937461
1.289923207
1.289846141
1.289781994
1.289773429
1.289760424
1.289734092
1.289721077
1.289769703
1.289832882
1.292246927
1.284390257
1.289835199
1.289855865
1.28985796
1.289872227
1.289853294
1.289856003
1.289918832
1.289961182
1.289920842
1.289867953
1.289807993
1.289776785
1.289764494
1.28974067
1.289722263
1.289715126
1.289754029
1.289805665
1.291661336
1.285139675
1.289810746
1.289794095
1.289813047
1.289863248
1.28984065
1.289862141
1.289923884
1.289957994
1.289883233
1.289796221
1.289769886
1.289796436
1.289782078
1.289733936
1.289712042
1.289718988
1.289758562
1.289804331
1.291121743
1.287606624
1.289655102
1.289738122
1.289539129
1.289798821
1.289557921
1.289800249
1.289687418
1.289887233
1.289714323
1.289735357
1.289692443
1.289814076
1.289781262
1.289771903
1.289717992
1.289769122
1.289770057
1.28981838
1.290483621
1.302580563
1.268514299
1.296868786
1.264226878
1.291176022
1.263341751
1.287925863
1.265922852
1.287647102
1.27113375
1.290081257
1.277648543
1.293752548
1.283482806
1.296615268
1.28699588
1.297373508
1.287451527
1.295872475
1.285740941
1.268249876
1.289580271
1.28983825
1.289856446
1.28995931
1.289967916
1.289959674
1.289979932
1.289991046
1.28997204
1.290026482
1.290137917
1.290154959
1.290043018
1.28994549
1.289932288
1.289942482
1.289882735
1.289887341
1.295827703
1.268286822
1.289603777
1.289875234
1.289888465
1.289941941
1.289943903
1.289945739
1.289990897
1.29004343
1.290048062
1.290066608
1.290125637
1.290140421
1.290075844
1.289999703
1.289956613
1.289945616
1.289910846
1.289943217
1.295879267
1.268442209
1.289590752
1.289889211
1.289904466
1.289912776
1.289900971
1.289908065
1.289970184
1.290065887
1.290108546
1.290096577
1.290082963
1.29009533
1.290096109
1.29004571
1.28996113
1.289915647
1.289909486
1.289979496
1.295980626
1.268526953
1.289567943
1.289891749
1.289917336
1.289897916
1.289879008
1.28989135
1.289950799
1.290058723
1.290135016
1.29012178
1.290056034
1.290060557
1.29011556
1.290089307
1.28996396
1.289882606
1.289889503
1.28998909
1.296058574
1.268906174
1.289571236
1.289887664
1.28992095
1.289896507
1.289876946
1.289902534
1.289952493
1.290032887
1.290111769
1.290129189
1.29006071
1.290055851
1.290119256
1.290109603
1.289980647
1.289877897
1.289863048
1.289961489
1.296196558
1.269169987
1.289599439
1.289864247
1.289896741
1.28988971
1.289881319
1.289926392
1.289969863
1.290005389
1.290055934
1.290113001
1.290090864
1.290077501
1.290105742
1.290095828
1.290001185
1.289903683
1.289847084
1.289910555
1.296242653
1.269890263
1.289619951
1.289827835
1.289850112
1.289867285
1.289880548
1.289945267
1.289982028
1.289979902
1.289998649
1.290087394
1.290128897
1.290111588
1.290079443
1.290051108
1.290012476
1.289942012
1.289847152
1.289858636
1.296315612
1.270349445
1.289610829
1.289799109
1.289809243
1.289844351
1.289879028
1.289944058
1.28996955
1.289954112
1.289961045
1.290062996
1.290148798
1.290130015
1.290046629
1.289994507
1.289995871
1.289962294
1.289851967
1.289821256
1.296271786
1.271448843
1.289610291
1.289806379
1.289805415
1.289841923
1.289888106
1.289923668
1.28992951
1.2899371
1.289948469
1.290044715
1.290135927
1.290126984
1.290024809
1.289946745
1.289952285
1.289947957
1.289853798
1.289810836
1.296208237
1.272129923
1.289635976
1.289844866
1.289829268
1.289854183
1.289899293
1.289896899
1.289897551
1.289938085
1.289957804
1.290020524
1.290086618
1.290098026
1.290017431
1.289922058
1.289898459
1.289900395
1.289846761
1.28982187
1.296017229
1.273640026
1.289698521
1.289878902
1.289844827
1.289857324
1.289892505
1.289883991
1.289897339
1.289958066
1.28996843
1.289984202
1.290013364
1.290049865
1.290015737
1.289917099
1.289845339
1.289833401
1.289829722
1.289846727
1.295747261
1.274502446
1.289750619
1.289884847
1.289843422
1.289846558
1.289864409
1.289885316
1.289927098
1.28997825
1.289965026
1.289944964
1.289940622
1.289984652
1.289991069
1.28990589
1.289804335
1.289770363
1.289804382
1.28986536
1.29539286
1.27642384
1.289780098
1.289866003
1.289847932
1.289843539
1.289839367
1.289892514
1.289954408
1.289976142
1.289947208
1.289920649
1.289896078
1.289914471
1.289929201
1.289873758
1.289776655
1.289727982
1.289772802
1.289863741
1.294895557
1.277412447
1.289775317
1.289857321
1.2898756
1.289865774
1.289839502
1.289897011
1.289959683
1.289943936
1.289919944
1.28992026
1.289884246
1.289851108
1.289845395
1.289819784
1.289756988
1.289710958
1.289744156
1.289837823
1.29439625
1.279674395
1.289776897
1.289876262
1.289916513
1.289905927
1.289859659
1.289888742
1.289942435
1.289905493
1.289897556
1.289934943
1.289886506
1.289805812
1.289767318
1.289761305
1.289746646
1.289712793
1.28972223
1.28979649
1.29369465
1.280731788
1.289786796
1.289898347
1.289931476
1.289928031
1.289875577
1.289876487
1.289916436
1.289892942
1.289889447
1.289917897
1.289867411
1.289783433
1.28973099
1.289725294
1.289738327
1.289720482
1.289715821
1.289766879
1.293094842
1.283293226
1.289809402
1.28988512
1.28990434
1.28990789
1.289865735
1.289857024
1.289894687
1.289909368
1.289894316
1.289867464
1.289815006
1.289774287
1.289737434
1.289723275
1.289735788
1.289727376
1.289721694
1.289754105
1.292237284
1.284348405
1.289816106
1.28983462
1.289841723
1.289854028
1.289828814
1.289830076
1.289865409
1.289927321
1.289892394
1.289797637
1.289746432
1.289763783
1.289762526
1.289744372
1.289739234
1.28973378
1.289734049
1.289755551
1.291613732
1.287177292
1.289664024
1.28976598
1.289517468
1.289747083
1.289484672
1.289734191
1.289591422
1.289864788
1.289735269
1.289739341
1.289644867
1.289761198
1.289769226
1.289807964
1.289757777
1.289787913
1.28974607
1.289771097
1.290706735
1.302604228
1.26708721
1.295690944
1.261831972
1.288867764
1.260582231
1.285176921
1.263473134
1.285491802
1.269465485
1.289111497
1.276852614
1.294067312
1.283422113
1.297967935
1.287177911
1.299122724
1.287349208
1.297380773
1.285145279
1.265165711
1.289714296
1.289794648
1.289781801
1.289978689
1.289987061
1.289941827
1.289977441
1.290043642
1.289987813
1.28987978
1.289914471
1.290034462
1.290025511
1.289854586
1.28971423
1.289735586
1.289828504
1.289984629
1.300073806
1.265152864
1.289659391
1.289902242
1.289916595
1.289992834
1.289966952
1.289925176
1.289961838
1.290042002
1.290037467
1.289968626
1.289951645
1.289997092
1.290000669
1.289906775
1.289797584
1.289786902
1.289835717
1.289977496
1.300099784
1.265296742
1.289520585
1.289964131
1.290019284
1.2899708
1.289923099
1.289905522
1.289926227
1.289993002
1.290058002
1.290070419
1.289990798
1.28993078
1.28994969
1.289956961
1.28988781
1.289830271
1.289805631
1.289918443
1.300338221
1.265261342
1.289372689
1.28996518
1.290053298
1.28993286
1.289889154
1.289920343
1.289919437
1.289934495
1.290050783
1.290156775
1.290040887
1.289894238
1.289910825
1.290001196
1.289975165
1.289867988
1.289761782
1.28983573
1.300340885
1.265738218
1.289374432
1.289922188
1.290015085
1.289907534
1.289877294
1.289939064
1.289937292
1.289916429
1.290020927
1.290151681
1.290062834
1.289906294
1.289900019
1.290000462
1.290018041
1.289900827
1.289737933
1.289768823
1.300736743
1.265948061
1.28950957
1.289863799
1.289920958
1.289886353
1.289876907
1.289944074
1.289965195
1.289947901
1.289979046
1.290060245
1.290041738
1.289957574
1.289916065
1.289960205
1.29000241
1.289918007
1.289746818
1.289750045
1.300666371
1.266889968
1.289655645
1.289811869
1.289817003
1.289858724
1.289882123
1.289936859
1.289987345
1.289990983
1.289936318
1.289939652
1.290016643
1.290030942
1.289951331
1.289901997
1.289932701
1.289908039
1.289787369
1.289787192
1.301016791
1.267264297
1.289706256
1.289776782
1.289748121
1.289844414
1.28990115
1.289929777
1.289986775
1.290006172
1.289903055
1.289860212
1.290007144
1.290103269
1.289986721
1.289846106
1.289838794
1.289868333
1.28983493
1.28985351
1.300777029
1.268611077
1.289658598
1.289783984
1.289758069
1.289863354
1.289937214
1.289929201
1.289956109
1.289975646
1.289885921
1.289855914
1.290003416
1.29011835
1.290008635
1.289826428
1.28976815
1.289815412
1.28986114
1.289912927
1.300843112
1.269151626
1.289589758
1.289831832
1.289827413
1.289906607
1.289967713
1.28991713
1.289912931
1.289930878
1.289898091
1.289898555
1.289978964
1.290059975
1.289999
1.289845887
1.289746569
1.289769752
1.289849778
1.289931614
1.300294426
1.27105824
1.289623609
1.289883311
1.289894525
1.289929071
1.289939117
1.289885863
1.289890665
1.289918749
1.289932541
1.289933339
1.289921558
1.289951453
1.289959272
1.289878279
1.289767982
1.289732854
1.289800519
1.289894383
1.299937847
1.271853356
1.289709271
1.289910716
1.289927755
1.289914827
1.289860454
1.289848388
1.289901083
1.289947859
1.289963342
1.28993567
1.289855309
1.28984433
1.289891762
1.28988595
1.289792148
1.289708801
1.289724757
1.289816375
1.299117196
1.274354153
1.289786763
1.28989499
1.289934653
1.289895863
1.289801105
1.289834993
1.289923705
1.289964704
1.289953689
1.28990565
1.289814497
1.289773681
1.289817394
1.289849109
1.289787484
1.289686377
1.289652902
1.289738294
1.298366593
1.27524863
1.289778833
1.289865039
1.289941615
1.289914657
1.289810762
1.289870299
1.289947227
1.289933036
1.2899042
1.289873428
1.289813416
1.289761215
1.289749322
1.289770164
1.289752179
1.289672066
1.28961638
1.28969129
1.297351754
1.278141097
1.289740931
1.289859028
1.289958953
1.28997175
1.289883496
1.289915801
1.289943742
1.289862223
1.289843472
1.289863955
1.289844565
1.28978024
1.28970366
1.289688165
1.289708293
1.289671827
1.289621258
1.289674997
1.296293909
1.279076136
1.2897124
1.289874424
1.289960095
1.289997265
1.289928474
1.289920611
1.289906044
1.289819071
1.289820047
1.289855775
1.28984333
1.289786494
1.289690407
1.289659101
1.289690949
1.289691345
1.289653489
1.289682335
1.295184424
1.282367628
1.28974736
1.289881101
1.289933581
1.289947667
1.289907165
1.289871754
1.289841139
1.289822631
1.289847505
1.28983839
1.289792205
1.289749728
1.289696483
1.289685322
1.289712235
1.289717264
1.289689913
1.289686666
1.293903405
1.28330752
1.28979676
1.289876557
1.289880787
1.289844284
1.289835675
1.289799612
1.28977358
1.289853663
1.289891175
1.289814588
1.289719586
1.289684249
1.289704188
1.28973611
1.289745344
1.289734895
1.289709928
1.289688466
1.292774525
1.286933888
1.289629171
1.289835176
1.289480932
1.289702126
1.289384568
1.289677132
1.28945277
1.289817752
1.289764775
1.289781248
1.289627735
1.289659563
1.28971918
1.28982162
1.289810445
1.289793309
1.289737442
1.289709469
1.291423343
1.305135013
1.262971989
1.297128723
1.256961515
1.289156507
1.256174413
1.28490758
1.260770883
1.285467506
1.268993745
1.289746584
1.278615321
1.295390009
1.286994131
1.299596859
1.29158725
1.300145204
1.291237933
1.296968954
1.287775494
1.254680736
1.289599494
1.289807037
1.28981102
1.289973654
1.289935298
1.289869393
1.289964744
1.29008087
1.290003306
1.289782473
1.289691149
1.289822604
1.289910605
1.289789611
1.289598941
1.28957691
1.289727365
1.290016551
1.305997055
1.254603392
1.289494916
1.289948922
1.28999595
1.29002917
1.289965539
1.28989817
1.289926043
1.28999748
1.289986512
1.289881732
1.28979316
1.289815664
1.28985216
1.289799602
1.289673697
1.289644619
1.289722825
1.28996622
1.306180556
1.254565823
1.289300422
1.290019271
1.290122493
1.290024727
1.289965718
1.289947086
1.289892202
1.289865154
1.289930814
1.289995961
1.289913219
1.289791751
1.289763548
1.289796309
1.289770337
1.289733794
1.289698725
1.289854358
1.306509813
1.254455286
1.28910564
1.289990675
1.290124727
1.289961528
1.289946754
1.290018237
1.289904077
1.289764752
1.289886181
1.290086706
1.290021591
1.289791135
1.289702027
1.289796803
1.28987924
1.289836502
1.289688392
1.289742563
1.306946202
1.254715082
1.289108033
1.289891547
1.29000787
1.289913418
1.289937535
1.29001898
1.28991258
1.289780821
1.289880005
1.290071001
1.29004101
1.289821348
1.289698573
1.289778949
1.289929307
1.289909891
1.289699583
1.289671509
1.307450021
1.254992655
1.289298995
1.289806895
1.289861594
1.289888867
1.289936591
1.28993299
1.289897096
1.289879667
1.289908818
1.289955347
1.289955826
1.289862165
1.289749957
1.28975526
1.289892433
1.289911243
1.289722109
1.289676057
1.307923586
1.255886459
1.289530123
1.289786487
1.289767038
1.289875999
1.289929984
1.289843075
1.289886411
1.289995636
1.289935757
1.289808933
1.289838229
1.28991648
1.289840683
1.289744435
1.289789787
1.289832085
1.289753523
1.289765037
1.308247974
1.25655537
1.289662536
1.289800914
1.289737588
1.289876181
1.289931015
1.289818244
1.289904619
1.290054459
1.289941554
1.289716624
1.289764224
1.289968631
1.2899471
1.289754856
1.289664239
1.289710983
1.289787189
1.289907067
1.308451556
1.25805178
1.289601739
1.289806532
1.28977068
1.289897065
1.289946022
1.28986828
1.289931481
1.290019804
1.289904917
1.289728343
1.289764734
1.289974824
1.29000021
1.289791037
1.289585195
1.289610428
1.289801363
1.290028963
1.308206712
1.25913368
1.28943732
1.289807018
1.289852737
1.289948008
1.289963335
1.289923299
1.289935278
1.289913552
1.289855617
1.289790664
1.28978503
1.289896196
1.289961341
1.289825937
1.289599572
1.289574855
1.289777613
1.290037183
1.307775024
1.261516771
1.289404223
1.289832056
1.289947009
1.289992001
1.289924704
1.289911682
1.289904861
1.289840461
1.289853265
1.289869021
1.289792967
1.289770543
1.289843189
1.289845287
1.289698204
1.289611225
1.28970367
1.289915533
1.306694046
1.263183532
1.289519075
1.289884323
1.290021979
1.290004435
1.289850042
1.289836771
1.28986791
1.289844302
1.289889797
1.289911942
1.289784766
1.289673331
1.2897121
1.289820439
1.289802475
1.289670258
1.289600628
1.289717936
1.305587353
1.266528503
1.28968683
1.289925738
1.290039916
1.289985584
1.289803281
1.289798721
1.289866796
1.289897164
1.289903589
1.28988505
1.289781035
1.289662593
1.289632128
1.289746198
1.289827837
1.28970648
1.289525634
1.289551713
1.303862025
1.268448089
1.289746039
1.289911079
1.290005228
1.289972689
1.289846127
1.289859295
1.289908168
1.289918875
1.289858453
1.289786658
1.289776905
1.289729138
1.289620921
1.289634797
1.289754834
1.289711256
1.289526133
1.289506521
1.30241162
1.272331301
1.289709835
1.28986271
1.289947486
1.289991776
1.289949235
1.28996344
1.289934986
1.289879429
1.289778749
1.289689123
1.289775928
1.289821496
1.289659427
1.289551744
1.289625309
1.289694023
1.289603545
1.289584914
1.300322476
1.274259616
1.289642334
1.289821454
1.289906821
1.289988205
1.289991735
1.289984131
1.289887592
1.289803176
1.289743452
1.289667183
1.289739247
1.289822622
1.289691728
1.289549373
1.289550618
1.289670406
1.289689478
1.289686715
1.298779806
1.278714745
1.289657402
1.289826162
1.289900765
1.289929935
1.289953681
1.289916414
1.289777712
1.289737394
1.289787842
1.289751246
1.289701958
1.289704309
1.289683628
1.289624305
1.289582051
1.289657832
1.289715875
1.289717622
1.296395319
1.280563142
1.289732815
1.289894455
1.289927805
1.289844054
1.289866065
1.289825254
1.289681864
1.289700746
1.289875976
1.28989697
1.289696384
1.289553917
1.289639235
1.289724088
1.289670839
1.289656357
1.289695697
1.289688322
1.29482238
1.285441121
1.289523006
1.289911472
1.289438949
1.289662678
1.289215319
1.289606251
1.289230526
1.289624083
1.289727834
1.289960858
1.289657995
1.289524817
1.289628313
1.289845321
1.289815774
1.289749361
1.289706597
1.289676919
1.292349192
1.305309479
1.258038064
1.293358674
1.248882434
1.281381212
1.246919566
1.275348545
1.252686296
1.277933643
1.263781258
1.286560997
1.276695698
1.296800339
1.287743497
1.30478775
1.293379302
1.3068715
1.291664084
1.302389624
1.285900184
1.246413195
1.289266682
1.289905436
1.289965795
1.28997295
1.289899634
1.289862661
1.289890293
1.289962761
1.289965287
1.289801732
1.28957199
1.289540171
1.289671848
1.289710038
1.289607661
1.289551429
1.289621488
1.289932613
1.317019425
1.246222593
1.289188662
1.28994205
1.290049893
1.290044343
1.289984514
1.289904264
1.289870789
1.289905157
1.289917574
1.289835586
1.289689397
1.289624779
1.289639167
1.289650623
1.289602664
1.289578248
1.289620869
1.289911883
1.317273398
1.246160822
1.289118351
1.289952339
1.290083852
1.290042609
1.290017602
1.289980996
1.289893439
1.289822808
1.289806092
1.289837691
1.289827761
1.289719039
1.289596028
1.289576798
1.289608569
1.289634422
1.289629721
1.289855819
1.318168568
1.245759369
1.289094314
1.289936421
1.2900385
1.289965455
1.290002755
1.290086761
1.289945798
1.289741093
1.289689925
1.289833302
1.289946357
1.289812405
1.289591291
1.289540447
1.28964528
1.289732039
1.28968104
1.289819596
1.318762787
1.246025411
1.289123767
1.289854403
1.28991229
1.289912124
1.290002618
1.290083553
1.289921315
1.289723565
1.289695027
1.289836925
1.289949753
1.289822946
1.289611579
1.289546707
1.289681867
1.289793312
1.289726276
1.289785673
1.320114085
1.245906495
1.289145173
1.289779843
1.289802944
1.28990022
1.29002798
1.289944718
1.289804675
1.289763748
1.289825781
1.289875842
1.289825525
1.289750792
1.289639407
1.289593415
1.289690157
1.289781292
1.289734832
1.289766378
1.320563829
1.246951638
1.289253498
1.289804326
1.289789704
1.289920624
1.290032953
1.289787576
1.289712661
1.289844019
1.289966197
1.290283996
1.289666738
1.289677754
1.289713774
1.289683485
1.289668515
1.289696787
1.289709493
1.289787441
1.321608034
1.247380252
1.289392583
1.289884878
1.289847466
1.289926051
1.289979967
1.289737814
1.289745394
1.289947561
1.290043137
1.29140574
1.289580157
1.289655091
1.289833763
1.289795886
1.289614688
1.289570471
1.289677883
1.289855709
1.321435512
1.249440397
1.28943893
1.289887405
1.289892829
1.289911501
1.289911774
1.289812975
1.289856833
1.289955785
1.289992253
1.289842385
1.289548849
1.289656133
1.289888287
1.289848771
1.289570753
1.289485828
1.289669116
1.289934021
1.321431955
1.250446638
1.28933463
1.289814305
1.289917821
1.289927289
1.289878768
1.289931911
1.289952396
1.289872354
1.289864249
1.2897868
1.289578524
1.289622164
1.289823647
1.289808211
1.289560231
1.289478601
1.289663108
1.289958237
1.3202126
1.253753384
1.289304272
1.28978089
1.289969012
1.289982398
1.289895994
1.289980705
1.289934792
1.289760965
1.289780169
1.289800325
1.289641438
1.289577303
1.289674297
1.289722801
1.289615336
1.289549266
1.289627089
1.289849308
1.31872348
1.255438285
1.289345809
1.289836448
1.290037321
1.290057238
1.289947687
1.289924597
1.289816028
1.289706419
1.289782113
1.289835171
1.28969369
1.289562745
1.28954262
1.289640644
1.289697113
1.289636783
1.289555174
1.289647539
1.31643028
1.260142186
1.289538811
1.289933953
1.290054137
1.290076254
1.289991112
1.289845577
1.289746805
1.289756335
1.289837605
1.289823065
1.289714518
1.289596059
1.289496552
1.289574719
1.289728775
1.289693484
1.289496051
1.289467594
1.313696415
1.262127975
1.289660592
1.289970168
1.289985363
1.290018111
1.290020605
1.289864244
1.289791309
1.289865516
1.289857806
1.289722242
1.289695637
1.289672027
1.289544272
1.289521596
1.289669283
1.289696211
1.289514445
1.289435531
1.310906276
1.267726889
1.289713105
1.289902481
1.28987591
1.289951692
1.290029722
1.289939019
1.289866576
1.289928644
1.289800504
1.289575282
1.289649081
1.289751312
1.289628441
1.289492961
1.28954471
1.28965435
1.289606911
1.289561339
1.307493661
1.269682999
1.289649566
1.289793662
1.289813329
1.2898974
1.289985672
1.289967314
1.289879607
1.289871383
1.289731827
1.289531675
1.289606721
1.28973946
1.289659813
1.289504475
1.28946934
1.289610993
1.289695336
1.289726324
1.304683588
1.276000376
1.289647758
1.289777681
1.289843751
1.289854613
1.289930034
1.289940488
1.289808737
1.289742706
1.28970809
1.289647422
1.289625615
1.289635472
1.289613716
1.289549879
1.289489098
1.28958637
1.289714684
1.289796797
1.300880355
1.277741673
1.289685972
1.289884146
1.289940805
1.289829447
1.289869517
1.289911739
1.289733335
1.289590323
1.289731876
1.289891955
1.289744421
1.289533456
1.289542424
1.289623547
1.289575363
1.289578742
1.289674803
1.289771798
1.298124427
1.284557053
1.289297893
1.289961445
1.289222974
1.289693285
1.288959813
1.28970236
1.289149283
1.289435473
1.289558051
1.29003118
1.28982718
1.28957324
1.289610371
1.289781767
1.289790435
1.289705224
1.289710171
1.28973486
1.294209868
1.310301559
1.248632808
1.295561571
1.237188918
1.280506853
1.235974399
1.272953287
1.245858468
1.276361244
1.262392825
1.287131216
1.280746346
1.299799858
1.296406204
1.309354685
1.304639168
1.310243798
1.301451058
1.30184989
1.292194421
1.22677393
1.28848884
1.290004349
1.290110469
1.289923024
1.289970749
1.289987424
1.289746104
1.289680739
1.289944861
1.289978392
1.289583319
1.289298396
1.289382063
1.289515187
1.289522332
1.289558331
1.289610673
1.289899474
1.333071934
1.226338825
1.288402312
1.289806165
1.289975066
1.290052593
1.290067836
1.289911154
1.289748701
1.289756692
1.289841151
1.289792985
1.289593616
1.289469728
1.28946809
1.289515228
1.289545902
1.28956469
1.289573626
1.28985925
1.3339097
1.225784299
1.288515396
1.289715235
1.289868169
1.290073876
1.29006238
1.289895146
1.289841024
1.289825585
1.28968623
1.289618619
1.289664111
1.28965922
1.289520451
1.289472964
1.289524461
1.289562294
1.289555651
1.289824655
1.33560678
1.225006026
1.288793063
1.289818433
1.289866621
1.289959515
1.289960594
1.289968461
1.290006189
1.289866641
1.289548818
1.289520475
1.289777864
1.289796898
1.289540213
1.289414313
1.289476549
1.289562905
1.289597478
1.289854353
1.337798768
1.224456454
1.288852731
1.289872916
1.289856302
1.289838694
1.289928728
1.290033121
1.290037909
1.289835699
1.289553309
1.289563634
1.28980984
1.289799079
1.289535829
1.289401932
1.289456509
1.289565377
1.289659182
1.289907577
1.340304771
1.22391048
1.288586568
1.289836105
1.289852031
1.289821116
1.289991589
1.290059677
1.28991676
1.289704934
1.289658397
1.290844382
1.289807348
1.289688878
1.289512807
1.289449811
1.289488707
1.289569638
1.289694217
1.289906906
1.342490645
1.224334504
1.288365451
1.289864836
1.289938308
1.28989385
1.290009221
1.289981525
1.289777466
1.289590496
1.290489243
1.316369218
1.290081553
1.289559251
1.289489152
1.289567834
1.289572179
1.289566751
1.289672346
1.289834808
1.344076067
1.224961121
1.288418697
1.289976071
1.290069125
1.289912439
1.289897114
1.289879012
1.289747687
1.28958318
1.291774091
1.364665213
1.291930496
1.289463228
1.289502123
1.289714991
1.289672803
1.289546018
1.289599625
1.289721285
1.344803683
1.227300724
1.288669492
1.289986034
1.290095198
1.289833843
1.289742193
1.289898014
1.289857886
1.289641906
1.289871202
1.297510356
1.289788756
1.289439225
1.289528575
1.289799387
1.28973263
1.289529653
1.289526825
1.28963031
1.344204326
1.229390834
1.288873991
1.28988164
1.290040409
1.289781817
1.289690501
1.290023878
1.290006441
1.289695377
1.289684106
1.289955246
1.289688261
1.289438138
1.289507642
1.289748717
1.289714211
1.289532125
1.28949658
1.289582856
1.342720003
1.233835709
1.288962262
1.289787171
1.289999907
1.28985238
1.289815306
1.290126774
1.290029023
1.289697582
1.28960417
1.289748196
1.289704986
1.289478748
1.289420878
1.289594564
1.289633193
1.289565271
1.289515638
1.28957116
1.33954509
1.237078157
1.288941983
1.289793744
1.289985197
1.290001662
1.29007066
1.290128663
1.289875503
1.289627394
1.289611243
1.289727505
1.289730513
1.289518269
1.289359188
1.289439444
1.2895501
1.289600515
1.289556904
1.289556701
1.335883911
1.243683507
1.289099733
1.289907778
1.289963494
1.290088144
1.290245433
1.290026319
1.289637101
1.289560688
1.289716473
1.289765606
1.289673403
1.289529552
1.289380965
1.289390375
1.289482608
1.289601145
1.289601646
1.289582057
1.330548365
1.247743404
1.289332673
1.290001466
1.289900722
1.289995759
1.290252388
1.289934205
1.289491369
1.289599262
1.289893596
1.289772726
1.289546108
1.289494807
1.289491077
1.289459719
1.289429957
1.289544662
1.289627619
1.289630213
1.325645412
1.255806891
1.289609331
1.28996098
1.289795627
1.289861831
1.29014911
1.289901041
1.289553061
1.28975505
1.290011163
1.289743866
1.289420102
1.289460179
1.289620122
1.289554052
1.28940791
1.289472032
1.289616654
1.289704301
1.319234563
1.259812109
1.289662166
1.289806426
1.289752629
1.28978823
1.290021233
1.289915905
1.289768631
1.28989005
1.289950739
1.289674252
1.289391738
1.289460211
1.289658973
1.289606233
1.289443818
1.289429124
1.28958047
1.289745502
1.314446294
1.268778086
1.289711719
1.289743583
1.289803456
1.289805546
1.289888734
1.289927694
1.289950003
1.28988996
1.289719738
1.289614027
1.28955722
1.289545322
1.289579253
1.289595231
1.289525031
1.289466932
1.289548971
1.289742026
1.307726878
1.272139503
1.2897026
1.289835371
1.28986731
1.289862277
1.289775423
1.289918509
1.290028383
1.289730071
1.289406565
1.289607688
1.289872445
1.28968917
1.289463618
1.289544632
1.289641638
1.289577867
1.289551349
1.289708305
1.303471535
1.28167574
1.289055072
1.289891878
1.28859322
1.289582565
1.288193728
1.28938983
1.289003427
1.289291634
1.288887297
1.289630569
1.290058837
1.289932204
1.289597748
1.28967822
1.289868899
1.289749682
1.28969352
1.289708522
1.296774163
1.311055334
1.238315604
1.28871615
1.22060779
1.265131758
1.217069672
1.252987705
1.230274695
1.261060071
1.253604572
1.280986929
1.279082867
1.303487771
1.300745252
1.321567576
1.311563504
1.326241212
1.304596075
1.314022036
1.289219267
1.209354341
1.287811637
1.290064779
1.290195437
1.289733751
1.289882654
1.290061779
1.28983351
1.28961521
1.289583104
1.289671701
1.289676125
1.289383068
1.289134022
1.289173118
1.28927554
1.289491793
1.289621357
1.289866507
1.356049059
1.208217091
1.287619817
1.289704402
1.289873044
1.289998357
1.290080676
1.28997416
1.28972702
1.289641091
1.289691872
1.289687842
1.289596041
1.289479735
1.289391693
1.28938246
1.289431402
1.289474938
1.289534157
1.289783664
1.357488354
1.207138923
1.28773715
1.28954056
1.289673341
1.290113222
1.290128588
1.289870465
1.289699745
1.28967608
1.289728199