/*--------------------------------*- C++ -*----------------------------------*\
| =========                 |                                                 |
| \\      /  F ield         | OpenFOAM: The Open Source CFD Toolbox           |
|  \\    /   O peration     | Version:  5.x                                   |
|   \\  /    A nd           | Web:      www.OpenFOAM.org                      |
|    \\/     M anipulation  |                                                 |
\*---------------------------------------------------------------------------*/
FoamFile
{
    version     2.0;
    format      ascii;
    class       surfaceScalarField;
    location    "8.8";
    object      phi;
}
// * * * * * * * * * * * * * * * * * * * * * * * * * * * * * * * * * * * * * //

dimensions      [1 0 -1 0 0 0 0];

internalField   nonuniform List<scalar> 
91025
(
-1.30152946
0.08631624796
-0.03265086699
-0.8724481114
0.127407848
0.115331407
-0.5574614702
-0.01365958157
0.09570165914
-0.2083841626
-0.14105751
0.1385487288
0.2121350838
0.1441489559
0.08350104912
0.5848134654
0.03826035229
0.104591212
0.8283892842
0.07304310958
0.06200281294
1.014974509
0.07238416177
0.1377282469
1.248870644
0.1973194378
0.08711346952
1.381175291
0.06372526255
0.07140006056
1.317393478
-0.09517559712
0.001057873296
1.091360302
-0.1273863887
0.05835509732
0.8138343977
-0.1551432676
0.009038811634
0.3202188553
-0.37359351
-0.09806373673
-0.3206591881
-0.474958769
-0.1152462512
-0.729624907
-0.3485596598
-0.0589128117
-0.9229714548
-0.09089499664
0.02295627475
-1.032319646
-0.07526138414
-0.07408796656
-1.390005024
-0.1652019219
-0.1348142885
-0.1739394169
-0.1375575591
-1.270784711
0.1617218153
-0.02987671739
-0.9351731151
0.1729628001
0.1178067968
-0.5657543917
0.08127091576
0.08093207793
-0.1491269867
-0.143895302
0.1387196642
0.2312503887
0.2732224986
0.08449172379
0.5760210972
0.05662594774
0.1151267611
0.8514840657
0.149812576
0.06148340476
1.045765499
0.1006183559
0.1183150003
1.206603754
0.3041801955
0.07609791834
1.299981303
0.09714797137
0.08566523421
1.278408761
-0.1590379872
0.005752237786
1.057849538
-0.2552348916
0.039533335
0.7377949741
-0.3259367567
0.008936287747
0.2696573126
-0.6346763225
-0.0371010043
-0.2652682372
-0.7641610524
-0.04864241204
-0.6355953135
-0.6001468407
-0.05383306249
-0.8974958501
-0.2248717902
-0.01571978096
-1.066746905
-0.2044170429
-0.09234221488
-1.380098519
-0.2609375308
-0.09877341197
-0.2771831212
-0.1010951183
-1.238717783
0.2333037083
-0.01912682576
-1.043954246
0.1245537226
0.1436430702
-0.5941434831
0.3194169812
0.09738411274
-0.100091435
0.02399678134
0.1754291347
0.2370652394
0.4323588218
0.09206897785
0.5486860062
0.1060252442
0.1348124879
0.8812321725
0.2397139191
0.05620358223
1.097312658
0.05172302119
0.09295982368
1.146784504
0.293707925
0.03047978781
1.161145865
0.03927699532
0.08881529038
1.203949187
-0.2043582061
-0.02739579315
1.010476545
-0.4098264206
0.006563904923
0.636566314
-0.487432567
-0.02516241813
0.2198828298
-0.7726632262
0.02360960748
-0.1724937461
-0.8373854145
0.01744474942
-0.491654798
-0.7783908637
-0.05072109894
-0.8438467695
-0.4240462234
-0.06914028778
-1.086409046
-0.3950991984
-0.1131999367
-1.349201733
-0.2835075537
-0.04902022462
-0.2789854668
-0.04536115011
-1.158946634
0.280324752
-0.008279278661
-1.059747069
0.03985115986
0.1717968068
-0.5791471539
0.6076837287
0.1380886703
-0.06258243367
0.279294589
0.2330774968
0.2409683011
0.609498206
0.1176200801
0.5249250964
0.1963077089
0.1601164203
0.8922762185
0.3731042566
0.07645000608
1.125541251
-0.03201647859
0.07874681726
1.090924658
0.1345386203
0.006516192661
1.040004299
-0.1632803204
0.06932166808
1.080854243
-0.2784107767
-0.03474540728
0.9231334677
-0.569451881
-0.02995050646
0.5333490619
-0.6371394146
-0.05529046795
0.1606567056
-0.8419688618
0.03877851672
-0.1296892212
-0.8046654063
0.05392505477
-0.4015988774
-0.9352376564
-0.0519301645
-0.7906290861
-0.6731186631
-0.103300405
-1.083132944
-0.6091258142
-0.1254141626
-1.290636921
-0.2722710607
-0.01026580505
-0.20391726
-0.004922652356
-1.101703501
0.3292675473
-0.02538236092
-0.9948117688
-0.004053511166
0.1505804866
-0.5661634765
0.8565411043
0.1308934693
-0.08895826472
0.4734011226
0.249534356
0.1853852598
0.7766378142
0.1182792978
0.4517655757
0.2707355116
0.1829578043
0.8186931539
0.5694687116
0.089359175
1.080724449
-0.08982182798
0.08447154744
1.039088451
-0.05657220716
-0.06448805889
0.9328503468
-0.4957111979
0.05117815229
0.9799569693
-0.3881384208
-0.09955626458
0.8525294161
-0.7364285658
-0.02936457054
0.5000514627
-0.7284969594
-0.1238069841
0.1479021654
-0.9446116952
0.01237593031
-0.1127564107
-0.8032411176
0.03469303109
-0.3337921943
-1.090477801
-0.04851079303
-0.6907934015
-0.8601623359
-0.1067336882
-0.96066878
-0.7870229216
-0.1210304776
-1.158159687
-0.2542958176
0.006506729412
-0.140576686
0.007822825718
-0.9678236595
0.3922324189
-0.06336231439
-0.7961310787
-0.009599223846
0.08056180015
-0.4877130217
0.9862988319
0.09070438798
-0.1100657265
0.5064263342
0.224198608
0.150288418
0.8566947288
0.1212292879
0.394595733
0.2764628854
0.1950417153
0.7012949993
0.7429789284
0.1208486793
0.9497159956
-0.07973907151
0.09421757605
0.9608945035
-0.1724406695
-0.06296756799
0.8813759455
-0.7862529593
0.03792292274
0.8893571741
-0.519997693
-0.083508596
0.7716682966
-0.8918398098
-0.01162496006
0.4624498916
-0.8238753696
-0.1323515398
0.1092414061
-1.142019883
-0.04148271034
-0.1727439877
-0.9160855822
0.001606535526
-0.3426748005
-1.202618883
-0.03870091569
-0.599226862
-0.9092672264
-0.06922307394
-0.8074029331
-0.8659011121
-0.09897508444
-1.031046751
-0.2587555834
-0.001790604449
-0.1470218718
-0.009292187596
-0.8801117787
0.4755132021
-0.07604692109
-0.6687365866
-0.0199370364
0.05853770868
-0.4639820202
0.9788577419
0.03860114959
-0.1825516204
0.3783443779
0.1798865973
0.08658865103
0.8807555018
0.1152403079
0.3286473145
0.1893510659
0.1915303897
0.5201560906
0.8415111615
0.09391309339
0.693629436
-0.06366031827
0.1131155022
0.8274755983
-0.06699259024
-0.06665958447
0.8530327007
-0.8842005977
0.07924551195
0.8760235223
-0.4956596622
-0.1743095569
0.7108964968
-1.02957382
0.01540497463
0.4360440557
-0.8940172189
-0.1685689017
0.111342003
-1.41364751
-0.06214670128
-0.1609482112
-1.043182247
-0.03911667125
-0.2759629161
-1.234046334
-0.02616753214
-0.4525782711
-0.8096988555
-0.03628424061
-0.6039400295
-0.882174885
-0.07881648066
-0.846003044
-0.309683906
-0.02988932204
-0.2426430443
-0.04047999965
-0.7156318696
0.5380198976
-0.0444995152
-0.5280358155
-0.06213758587
0.09759301215
-0.3920518695
0.9021195662
0.03730747632
-0.1927418126
0.2085914692
0.1589524062
0.08930767313
0.9074824076
0.1441727756
0.3165771048
0.093196524
0.1851426353
0.3889631196
0.8160104436
0.0704801676
0.4714908583
-0.08900804017
0.1141490097
0.6407873746
0.1802022651
0.02217283526
0.7898631934
-0.7204110791
0.09602653675
0.8225317095
-0.2778088252
-0.1809884573
0.598271484
-1.072865697
-0.003060767123
0.3265876549
-0.9610210417
-0.1258385415
0.08691750635
-1.645873308
-0.05475053741
-0.1276342616
-1.126464581
-0.04388165051
-0.2186534832
-1.192608302
-0.02902395726
-0.3666786805
-0.6822858197
-0.01639050783
-0.4918841243
-0.8844917678
-0.06423135012
-0.7245956136
-0.4087625059
-0.04858214053
-0.374443611
-0.06563386953
-0.6555213221
0.5977076581
0.0006224596378
-0.491941106
-0.1241067848
0.1906011001
-0.3958189166
0.8993351342
0.06080280638
-0.2364978377
0.1146260551
0.1618934275
0.04244379382
1.049420873
0.1494145722
0.2691586459
0.08149282668
0.1801952909
0.2813043163
0.7666690693
0.03296710941
0.3009606694
-0.1998137734
0.1376057406
0.494479005
0.4623034452
0.07645944911
0.6878348084
-0.4826334739
0.1464563298
0.7232765087
-0.002944245337
-0.2182282659
0.4541002058
-1.090890381
0.002729650991
0.2427320276
-0.947771828
-0.08765128186
0.1412753403
-1.711494616
-0.001746763838
0.01123164364
-1.050479336
-0.05552536163
-0.08566946357
-1.139083646
-0.05327152072
-0.2687044
-0.5962799039
-0.03352377719
-0.3684132022
-0.9373161327
-0.0572797572
-0.542964405
-0.5054800202
-0.04882032152
-0.49112455
-0.06640275367
-0.5052503764
0.6443402017
0.02700071966
-0.3881399789
-0.1552673396
0.2378197795
-0.302554219
0.9893382995
0.1049557019
-0.1876094775
0.1115065813
0.1699622502
0.03599422916
1.255531623
0.1579260346
0.2213490046
0.174298547
0.1890638994
0.2350770421
0.7746655529
0.06798225006
0.2524324988
-0.3081716743
0.1582070371
0.3997674009
0.6164868619
0.1411770982
0.551334368
-0.3406672167
0.1102469641
0.4919972835
0.1154378953
-0.174335338
0.2297735162
-1.11037148
-0.01525597029
0.1232855563
-0.8242322576
0.01457046558
0.1769338766
-1.520980699
0.05291656699
0.1298890589
-0.8407300281
-0.04552493382
-0.03284063751
-1.103453638
-0.09653854695
-0.2709061124
-0.601832953
-0.05519926006
-0.3406013427
-0.9945321643
-0.04286129585
-0.4030534933
-0.5246152877
-0.01395609072
-0.5250517346
-0.04174250264
-0.4525836725
0.6980045007
0.003218854673
-0.3574842857
-0.1615824762
0.1992959309
-0.283565881
1.113202545
0.1080464512
-0.1859564398
0.09191764709
0.1579610174
-0.05636093886
1.419107394
0.1208572902
0.06437109617
0.2531873494
0.193569546
0.1447862018
0.9021592485
0.1087544108
0.2432744157
-0.3383791515
0.1914630893
0.3518087829
0.645125032
0.09783098318
0.3857779887
-0.404523063
0.07290746326
0.273758291
0.07081793344
-0.1784417868
0.07157545754
-1.15706855
0.01121160354
0.1026020393
-0.548396907
0.04907684242
0.2674262413
-1.196709362
0.08646663976
0.2562755657
-0.5668129748
-0.05951317396
0.04298553732
-1.10709395
-0.1302159173
-0.2249572542
-0.6304855382
-0.07856474724
-0.2381819057
-0.980690478
-0.01624078781
-0.1788208704
-0.4089469519
0.04207077153
-0.4766633122
0.001630590635
-0.2572283704
0.738525447
-0.04253005359
-0.2170610208
-0.1858417835
0.09929332751
-0.1546953036
1.144181848
0.09544275927
-0.08762859802
-0.00946354097
0.1449921657
-0.06588244517
1.386974497
0.09626534325
-0.06092860603
0.2077895378
0.1991259853
0.05461757238
1.045130839
0.1881049308
0.2259600478
-0.251497998
0.2095253108
0.2882367107
0.6499437553
0.080652887
0.212452868
-0.5445500925
0.0384974824
0.05778504943
-0.04243048977
-0.06690688893
-0.03685424231
-1.159590174
0.03145347445
0.07130569147
-0.2463048857
0.0772392477
0.2553335017
-0.8827003241
0.06646031799
0.2197867126
-0.371602711
-0.04822802503
0.002612818665
-1.110900574
-0.1285948445
-0.2269955542
-0.617732424
-0.06032161073
-0.1811557351
-0.8474617757
0.01444423746
-0.03291112312
-0.1780906003
0.09389286538
-0.3554141356
0.03699812338
-0.1968515803
0.7806744455
-0.07878416155
-0.2021572023
-0.2968642317
0.02114912765
-0.1588883141
1.070695897
0.05853163167
-0.07312709029
-0.1760279235
0.1301726256
-0.1203980408
1.188310589
0.05205454039
-0.2007285923
0.008729785299
0.1697071319
-0.08059477076
1.150729416
0.1943753168
0.126144615
-0.1071255577
0.1986613734
0.1702558523
0.716211222
0.03199201168
0.05094227522
-0.6439049295
0.04738106021
-0.01019896845
-0.05413116202
-0.001099129453
0.01121018817
-1.055117059
0.06299769397
0.1400952414
0.003840892321
0.01511504857
0.2476290171
-0.6958315096
0.02117808052
0.1808614887
-0.2589075822
-0.0442883915
0.03666591557
-1.092608873
-0.0842349037
-0.09127236103
-0.4911831032
-0.03055520449
-0.02242541296
-0.6450301268
0.02631696909
0.1370569294
0.09527630731
0.09507084151
-0.2120324043
0.04484298744
-0.01376922618
0.7885247365
-0.0762317608
-0.08904327401
-0.4594224215
0.0064796434
-0.05963571128
0.9254081064
0.05024743482
0.01560419221
-0.3363449551
0.1494398052
-0.0497990059
0.962901833
0.06012624317
-0.1884216873
-0.256688414
0.1474857017
-0.1406528169
1.131336657
0.1886760764
-0.002983258376
0.0001198956361
0.1748466103
-0.01647344673
0.8136197369
0.05621293953
-0.1102537032
-0.612648285
0.09206699142
-0.07259190663
0.105484346
0.1169096692
0.04816833638
-0.8392863405
0.08108441205
0.1146468025
0.1496603762
-0.00887806471
0.1135753537
-0.6080444994
-0.01299513281
0.04749706397
-0.1724294094
0.008488356499
0.02093811914
-0.9922570283
-0.009284294253
1.510589754e-05
-0.3012792632
0.01610603703
0.06943454111
-0.4409396074
0.01242714014
0.1560077287
0.3031796892
0.05333216649
-0.09405584932
0.01855017687
-0.04129905126
0.7792622045
-0.04899125533
-0.1294232185
-0.6377007019
0.02689418314
-0.1080479156
0.8358890304
0.04378393527
-0.02474580754
-0.4426516047
0.1539945129
-0.05868369097
0.8325432857
0.05273296893
-0.1529291033
-0.4646353393
0.1028511655
-0.163925344
1.031319156
0.108183628
-0.1338126413
-0.02351315393
0.1125949039
-0.1778073153
0.8932103958
0.04752001711
-0.2176511583
-0.4758695493
0.1232131018
-0.0580320883
0.3984200956
0.1385534622
0.1183973197
-0.5531773864
0.08648190081
0.141282612
0.296211886
-0.04889954235
0.05604828504
-0.4968087323
-0.0275386508
0.02572567782
0.01038544759
0.04244480786
0.1258131645
-0.7514556809
0.06758786747
0.2153914396
-0.06171891961
0.04404513907
0.2533564561
-0.3079826578
-0.02223322319
0.2137427463
0.4077013269
-0.02759571187
-0.06852047577
-0.02989150274
0.07319174785
0.7507092439
-0.02350675162
-0.02591628745
-0.7547886625
0.06645302463
-0.005433054906
0.8084528146
0.05816775534
0.0255088526
-0.5088897205
0.1601208313
0.0144761118
0.8015189214
0.08490134122
-0.03418788143
-0.5674090138
0.09430009916
-0.08962894204
0.8829731808
0.07466280545
-0.2008160208
-0.1636725624
0.07960753077
-0.3129590071
0.8848570263
0.07502710206
-0.3116727849
-0.3277847078
0.1403899785
-0.119052035
0.6911495381
0.1641793039
0.07678629362
-0.2649339887
0.09514945947
0.06130150666
0.4928026195
-0.007609023173
-0.06393689567
-0.3080905174
-0.01160358034
-0.05969411817
0.2940119412
0.08949574361
0.1354637734
-0.4067627472
0.1211351192
0.2881790629
0.2002361216
0.07666295043
0.2889830038
-0.2169218305
-0.04365684066
0.1499467894
0.3975912338
-0.08799697143
-0.1121563663
-0.07027066325
-0.01303597898
0.7159156428
-0.0184750461
-0.07402252153
-0.8023512243
0.06865559398
-0.05245560776
0.79817195
0.03656023568
-0.04773457238
-0.5926742155
0.1103170691
-0.03959939031
0.7934749353
0.069140049
-0.005874854592
-0.5980034073
0.05583821011
-0.04561833594
0.7619993124
0.008092356079
-0.228211515
-0.3683950866
0.02223908595
-0.3572801597
0.7924739912
0.03470757799
-0.3129318868
-0.2294612315
0.09944127128
-0.1070793631
0.918474996
0.1014676085
0.07816488183
-0.008413599473
0.08208505666
0.08069052974
0.7528172236
0.01151597453
-0.04674085931
-0.06792554665
-0.001471239411
-0.02739869208
0.6401178476
0.07320481706
0.2041349489
-0.01987115582
0.1306167643
0.3908670119
0.4821384614
0.08048824227
0.3769592775
-0.1257491871
-0.03799763267
0.1851266836
0.342515553
-0.1107522081
-0.187548841
-0.07904095881
0.09724516691
0.6928398509
-0.02786657877
0.05472338739
-0.8036258666
0.05906960272
0.05069983071
0.7356584297
0.01875626881
0.006640475958
-0.7062366481
0.07849625719
0.007422496893
0.7369869956
0.07727132764
0.0529447577
-0.649420831
0.05915880563
0.01231309776
0.6658785687
0.009983196129
-0.1960199045
-0.5981741223
0.01664084493
-0.3348847706
0.6752777908
0.04550368914
-0.2891923962
-0.1821553763
0.07528064271
-0.1352852062
1.038319805
0.06895965524
0.0006441344129
0.1650760733
0.07144766911
0.003310059724
0.9747799201
0.05806105113
-0.1040377719
0.1166679027
0.008905743922
-0.09657768163
0.9069865311
0.0642325741
0.1116297266
0.3026449792
0.1101022947
0.2977096004
0.7556808824
0.09284517252
0.2963210127
-0.0003579530521
-0.008385995907
0.1055282057
0.3008524899
-0.07759311098
-0.2626609912
-0.06327116035
-0.01954405708
0.6963638846
-0.02909396518
-0.01770592752
-0.7893468117
0.01624726425
-0.0285427437
0.6486412006
-0.01493355949
-0.05311778299
-0.816990047
0.0009236563962
-0.05541398753
0.6440658977
0.03322936612
0.01192984708
-0.6838128217
0.007049933736
0.00189042201
0.5904236162
-0.02846907026
-0.1448234342
-0.7658486001
-0.02893649996
-0.2191763434
0.6167469406
0.003031880504
-0.1644282961
-0.1488132986
0.01754680367
-0.05421117172
1.098770229
0.00160833913
0.0333020575
0.2593139214
0.03413495771
0.04623993981
1.097940745
0.03240484421
-0.03764631359
0.2091068488
-0.000725678656
-0.03705513977
1.055778744
0.017177245
0.106702192
0.5238978861
0.06673284635
0.2527158892
0.9802273937
0.06512869775
0.2616733649
0.1377777882
0.01808380478
0.1261120775
0.2968206579
-0.03884146102
-0.3147621627
-0.03264438398
0.08787141888
-0.01463454587
0.07373181116
0.01868765142
0.07789020101
-0.005289294141
0.03717748667
0.02853556808
0.008520276913
0.01932971724
0.03387828938
0.03740850571
0.009045777464
0.002867328845
-0.04732287289
0.02406809491
-0.07815356849
0.02310285073
-0.08410903198
0.007537414314
-0.04820976053
0.01025024241
-0.009595447671
0.02804183072
-0.0263961002
0.02604039643
-0.0454757691
0.001588322344
-0.057769603
0.01209016414
-0.01652025764
0.02212321286
0.04523048406
0.03703093394
0.05913195411
0.01504078392
0.00183658537
-0.001236408984
-0.009766804548
-1.201775388
0.1311147952
-0.0516130961
-0.7962785536
0.2070907189
0.3316909425
-0.5519261838
-0.04729879507
0.0887503228
-0.2660251167
-0.1513546239
0.2276376899
0.1498421121
0.1528859193
0.2060269674
0.5845854865
0.07949499792
0.2930533249
0.8560599693
0.08302471047
0.2096133622
1.033469945
0.02648477957
0.2878958518
1.192155808
0.1496135817
0.2440569411
1.34320984
0.05688265362
0.2049230433
1.316790345
-0.1434545892
0.04761047707
1.03656402
-0.2104445228
0.07517083508
0.663710777
-0.1745824133
0.02659780193
0.2839953334
-0.1956151813
-0.08125098898
-0.2141831795
-0.288742694
-0.1098650195
-0.6626483481
-0.3616344897
-0.13753896
-1.055013332
-0.240382756
-6.176479495e-05
-1.200400483
-0.1231825061
-0.09187108756
-1.296237102
0.02120402689
-0.07556678273
-0.0054433581
-0.1504007281
-1.16909175
0.2425317175
-0.07812901125
-0.8798299622
0.3186153929
0.2672870042
-0.5674410354
0.1052961116
0.09157082297
-0.1913767824
-0.08276970917
0.2586604707
0.1837811783
0.3204714748
0.1999903803
0.5675270818
0.1487824892
0.3080960889
0.8572143435
0.1837373233
0.213734283
1.061635088
0.04084059273
0.2538718999
1.163909795
0.2153107508
0.2112285016
1.245156039
0.07394786652
0.2320255519
1.270437522
-0.2358319073
0.08427764611
1.043210148
-0.3872997601
0.06348686053
0.6605324732
-0.4023132014
0.01517166981
0.2343662529
-0.4191982206
-0.02235089534
-0.2388321633
-0.5253839542
-0.0212774198
-0.636370266
-0.636428138
-0.1014671765
-0.9894638527
-0.4412349868
-0.02551457279
-1.144290806
-0.2620216936
-0.1177553513
-1.286118666
0.007653780625
-0.06060682013
-0.02701211738
-0.1220801084
-1.113047705
0.274593655
-0.1031763094
-0.9723736723
0.2134548661
0.2199140481
-0.607706398
0.372324408
0.1347722027
-0.1424661626
0.1156707366
0.3624341985
0.1919268304
0.5018490089
0.2044242178
0.5282556311
0.2266554302
0.3203974842
0.8418981218
0.3179512281
0.194988201
1.088242332
0.01632249953
0.206748769
1.128032408
0.1737511352
0.1205922031
1.118689845
0.007016137169
0.2266633628
1.179323955
-0.2715773968
0.03084611057
1.026249302
-0.5197703983
0.04489054802
0.6528554729
-0.6324262339
-0.04411040781
0.1926123525
-0.6676171545
0.02908254927
-0.2536481337
-0.6865256894
0.04460096286
-0.568525561
-0.8190661529
-0.06261391956
-0.8664810797
-0.589627291
-0.06136127078
-1.036835319
-0.4210900601
-0.1556990017
-1.243091115
-0.06675664389
-0.04819724314
-0.07435152083
-0.08499975722
-1.00262517
0.2151767734
-0.1041395312
-0.9595513913
-0.06120297635
0.2216757673
-0.5959526027
0.5652342798
0.2276117912
-0.1068172742
0.3078960972
0.4821090129
0.2004300656
0.6581508457
0.2397700592
0.4914007939
0.2968623614
0.3347176759
0.8082510049
0.4644499305
0.2212915894
1.081833595
-0.03816490999
0.191580559
1.0819125
0.01852616311
0.07148256173
0.9958113576
-0.1726694582
0.1663689809
1.032508531
-0.3148192038
0.00145127609
0.9471209819
-0.603787382
0.02922131627
0.6171836638
-0.8189209699
-0.05630934544
0.1598637906
-0.8978297148
0.02414766437
-0.2752761802
-0.7965235759
0.07768135689
-0.5236768913
-0.9269364438
-0.0445880842
-0.7621908563
-0.6896204874
-0.07845472149
-0.9342975233
-0.5852885356
-0.1851711314
-1.185753152
-0.1833994124
-0.04143291412
-0.1433618809
-0.06024988249
-0.9683574636
0.2061978732
-0.1214706197
-0.8829506624
-0.2552542785
0.2160075955
-0.5515433671
0.7097317191
0.2353459884
-0.118291192
0.4021100902
0.5233679101
0.156911304
0.7856079404
0.2159583784
0.4155246248
0.3156136883
0.332022117
0.7016601978
0.6065354787
0.2405172794
0.9970996966
-0.07106019335
0.2250183131
1.033268323
-0.1027249586
-0.06076154522
0.9228091746
-0.4279961053
0.07601887095
0.916494411
-0.4013789904
-0.1813953354
0.832959341
-0.6983684826
0.05102169206
0.6029707873
-0.8674094224
-0.1485167716
0.1855967494
-1.085384484
-0.03514504979
-0.2512920124
-0.8926277902
0.01184940151
-0.4527849843
-1.022204043
-0.03877848938
-0.6428264748
-0.7302619083
-0.08135333169
-0.7943345328
-0.717242318
-0.1933306932
-1.068704282
-0.3062557033
-0.0475393552
-0.227909156
-0.05456031175
-0.9011083929
0.3461845311
-0.130528191
-0.689528241
-0.1339881759
0.1864337551
-0.4124521976
0.8593375715
0.1741495655
-0.09672943407
0.411496911
0.4791335345
0.1409808852
0.8750585097
0.1967376242
0.35283666
0.2544826838
0.3219132899
0.5674850237
0.688357353
0.3234544394
0.8430126193
-0.03964525559
0.2897212366
0.962664744
-0.07418800653
-0.05678916679
0.8719808174
-0.6576209869
0.01763273603
0.8080885492
-0.5899153017
-0.2366981321
0.7062030894
-0.834303532
0.07733005977
0.5375764829
-0.8530609566
-0.1489354838
0.1834210515
-1.241495105
-0.1256681797
-0.2458166913
-1.03419143
-0.04380234039
-0.425519281
-1.129259182
-0.03797581614
-0.5768346487
-0.7337662677
-0.0468235967
-0.7003145535
-0.7923733873
-0.1719145776
-0.9547456826
-0.3959081829
-0.04942490766
-0.3096415396
-0.06190233579
-0.8490369215
0.5700664004
-0.1330694463
-0.5791360857
0.1106675039
0.1861094951
-0.3650471082
0.9887095222
0.06457006604
-0.1434058522
0.3394043942
0.3887947373
0.07299777396
0.9213469195
0.1798296503
0.2691411545
0.1455464338
0.3235798909
0.4201254679
0.7271642958
0.2734002071
0.6572178747
0.01257091726
0.3175589736
0.8255838548
0.1323049189
-0.08833156729
0.8006784137
-0.7628837703
0.05414650793
0.7749900316
-0.6343944068
-0.5264708077
0.6346838493
-0.9825898873
0.08761293128
0.4773899107
-0.7891194747
-0.2491560312
0.1928348977
-1.395667055
-0.144481833
-0.17380392
-1.159828597
-0.1067248429
-0.3217404973
-1.232919134
-0.03793005092
-0.4718105092
-0.7057051877
-0.03269980749
-0.5745582362
-0.8277321749
-0.1441841768
-0.7842000264
-0.4251437485
-0.05326160015
-0.3744026145
-0.07376723631
-0.6497097822
0.703530362
-0.09395184422
-0.4744757549
0.1935548199
0.2325711961
-0.3161200887
1.035256317
0.02920600825
-0.1454381256
0.227506382
0.3314025567
0.05508604568
0.9460127063
0.2564913219
0.2426423568
0.06967937944
0.3590072013
0.3427045469
0.7779253719
0.2117079229
0.4924344072
0.02256785767
0.276664953
0.58774361
0.3914269435
0.03796680476
0.6445114745
-0.704224135
0.1170542326
0.75047981
-0.3824525035
-0.6918778754
0.5815255002
-1.043421394
0.004694899414
0.3558041704
-0.7161928259
-0.236836447
0.1373379268
-1.510019465
-0.1190838665
-0.1169151781
-1.215203941
-0.08176528832
-0.2340494072
-1.299137352
-0.05555140978
-0.4110567866
-0.6838875281
-0.02797838858
-0.5173239394
-0.8348711153
-0.1241448738
-0.6700679491
-0.4017390812
-0.04446719947
-0.3935469061
-0.07811140018
-0.524099091
0.689576303
-0.04232672762
-0.4938509427
-0.004956667605
0.3358729439
-0.3795745606
1.037259437
0.04637533189
-0.2135343813
0.1243942547
0.3307102236
-0.006730440643
1.042681168
0.3001409005
0.1936183601
0.1128451285
0.3955031155
0.299559938
0.8715521559
0.1069142766
0.3687468267
-0.07054348384
0.2451050765
0.3921764898
0.5375733366
0.1303097967
0.4979488985
-0.6006225899
0.2651036113
0.6912160065
-0.07126505239
-0.5358861459
0.505684639
-1.046112603
-0.0162450454
0.2413966799
-0.6585490706
-0.2200469518
0.1134432855
-1.546361639
-0.00682611707
0.007812064223
-1.117992898
-0.05521968895
-0.06926215114
-1.30983834
-0.08348731958
-0.2873946484
-0.6669041953
-0.0762765237
-0.4031916897
-0.8506980307
-0.120527232
-0.4930297209
-0.3385181446
-0.02914603289
-0.3760444362
-0.06870300156
-0.3286190706
0.5935629959
-0.006171636206
-0.4018269506
-0.293229097
0.4104430684
-0.3226718017
1.028268626
0.1371448491
-0.1744863721
0.07528718197
0.3552548406
0.006243858015
1.192678493
0.3347624822
0.1736451387
0.2300940622
0.4190624899
0.2607971273
0.9897741221
0.1405849836
0.2687048947
-0.1936452226
0.2425837595
0.2327674703
0.5319394375
0.2599507144
0.3472222494
-0.4959286531
0.2637107037
0.5450489565
0.1832035779
-0.3436650952
0.3549801592
-1.038867362
-0.07528315897
0.08725141219
-0.6372863504
-0.05768193161
0.05910138125
-1.435919296
0.1093335772
0.07414621853
-0.8660779928
0.01698175631
0.01644296742
-1.232111467
-0.1324586539
-0.2191356642
-0.6570558075
-0.1162323739
-0.3404252201
-0.8675774951
-0.1134919155
-0.3818091243
-0.2642754424
0.01101141571
-0.3372193306
-0.04595110269
-0.3013210526
0.555862083
-0.03340819697
-0.3401969063
-0.4819682378
0.376772876
-0.3023310163
1.045976429
0.1543456406
-0.1740384334
0.03211880367
0.3344822125
-0.03831195409
1.324459942
0.2508648098
0.0699075873
0.2812428756
0.3836373356
0.1287934925
1.095009578
0.1818953285
0.1699898163
-0.294906084
0.2998448443
0.1701659902
0.5291447806
0.1971366195
0.253423583
-0.449886041
0.2030816849
0.3796515653
0.3212556023
-0.3261388117
0.2091926182
-1.084006169
-0.03696307973
0.03767202155
-0.5649939411
-0.003438446965
0.08773962013
-1.229294558
0.1862433728
0.1614375829
-0.528237521
0.01218354236
0.1305353555
-1.084889317
-0.1720150047
-0.08981492456
-0.6071975387
-0.1565928091
-0.1828739844
-0.8693545043
-0.08695927319
-0.1996265751
-0.1945529957
0.05620802184
-0.3182856607
-0.001326597836
-0.164750624
0.6356911276
-0.09117500271
-0.1384478505
-0.4658459839
0.2469995183
-0.1292306688
1.053822214
0.1322082414
-0.0623534479
-0.04056401709
0.3050881344
0.007640637963
1.31044664
0.1811567388
-0.01270092654
0.1574197088
0.338023765
-0.001429412026
1.104411513
0.3237303002
0.08272904242
-0.292919018
0.3814072847
0.1407573131
0.5927457232
0.1890832613
0.1529029333
-0.4339713668
0.1070786355
0.1412399093
0.2932925565
-0.1341247606
0.04131781731
-1.121099833
0.01330091214
-0.007667527363
-0.4247823665
0.09216234339
0.07792072004
-0.9847338566
0.1565979567
0.1286870566
-0.2326872836
0.02156199882
0.102460669
-0.920888401
-0.1774442617
-0.05179270714
-0.5119265557
-0.1232307282
-0.09982459568
-0.8304466188
-0.04635808787
-0.1042763409
-0.147889962
0.110921502
-0.3187263858
0.03527053735
-0.1642871223
0.794611449
-0.1344345313
-0.09429148121
-0.3877083754
0.1155874821
-0.100838111
1.026668909
0.05633198901
-0.0556349585
-0.1592653548
0.2628386482
-0.03604123076
1.175964163
0.08192627307
-0.1259430128
-0.1152369837
0.2440176697
-0.1585532369
1.031636982
0.344846366
-0.01125366245
-0.225783493
0.4074049745
0.09644287417
0.738695118
0.09442635659
0.04537719412
-0.4386326567
0.06218926102
-0.005762800245
0.2589400732
-0.06539039374
-0.0009389574276
-1.038648151
0.09871020693
0.08557108652
-0.2030654318
0.0352593846
0.1595099982
-0.7866217999
0.06126254491
0.1340787911
-0.03632471479
-0.03308011925
0.1103715216
-0.7816017924
-0.1354027231
0.04602062322
-0.3628480346
-0.07281681829
0.06332052487
-0.7457509862
-0.01581869138
0.06674027632
-0.09623539842
0.1091731979
-0.3215588489
0.04582234598
0.01296462551
0.8982631045
-0.13147328
0.03349177822
-0.3846560766
0.07217240248
0.01911052481
0.9448655607
0.04755048516
0.01766716788
-0.3000309918
0.2871596518
0.003895166437
0.9956681426
0.09358006684
-0.1265683585
-0.4021774837
0.2210361349
-0.1903196271
0.9138238522
0.3580999008
-0.07522236591
-0.1576450827
0.3862594975
-0.007050926084
0.8653544278
0.1200267485
-0.1044143524
-0.4633833997
0.08067425955
-0.1738505722
0.2758075667
0.1301883416
-0.05374150721
-0.8201878837
0.1715281384
0.1068490881
0.0584038859
0.03984825683
0.1411105301
-0.6296874745
-0.0354410999
0.03874639121
0.04833362308
-0.01162984131
0.02031937775
-0.6669521889
-0.0405661061
0.03547099941
-0.1819044243
0.02685495499
0.1055822194
-0.6017219805
-0.005343044929
0.1245626032
-0.002192033898
0.07094007306
-0.2879225826
0.0118722257
-0.002456947038
0.893082738
-0.09773170015
-0.03645960619
-0.5218688368
0.08189646527
-0.04221246171
0.8662824448
0.04455522694
-0.05258913668
-0.4611559813
0.2738382377
-0.06962050831
0.8778140598
0.08903375461
-0.1311986458
-0.5969814965
0.1785584109
-0.1789349766
0.8216039495
0.2228224008
-0.1295176838
-0.1558878239
0.2544866782
-0.1117719698
0.8959616608
0.06725705934
-0.2053956005
-0.4840599193
0.1105873987
-0.2118052197
0.386499901
0.1732620253
-0.01686412688
-0.5216044993
0.2042206998
0.1794809465
0.3635017861
-0.01535149877
0.1835165013
-0.4680740001
-0.08638162264
0.05457036909
0.1219268312
-0.01107175698
0.04736640867
-0.5434871571
0.06230101012
0.1124275999
0.04033292517
0.08526597823
0.2172405351
-0.4050698252
-0.01556324234
0.2557066844
0.1536847141
-0.02140395654
-0.2246409536
-0.0429730213
0.1361041136
0.8077725901
-0.07130988258
0.05493811928
-0.7201533334
0.1298165366
0.04603479635
0.7912294274
0.08528919032
-0.005126595853
-0.6205530331
0.2731041721
-0.03744039901
0.8158076457
0.1508739836
-0.04622872576
-0.6795249
0.218641502
-0.08155613265
0.7344946649
0.1758495248
-0.1562888706
-0.2625190116
0.1506317307
-0.2356958035
0.8173007153
0.0960217091
-0.2984888308
-0.4789018516
0.1746303736
-0.2530642832
0.5346877786
0.2544177918
-0.05573163898
-0.2431270208
0.212921446
0.09973970792
0.6481356479
0.04640966664
0.08859280956
-0.2839696426
-0.06311815186
-0.01531963873
0.257852294
0.06525921767
0.005421339453
-0.3642955851
0.1417044069
0.09277252583
0.2747435032
0.1501558009
0.1962927696
-0.1829969177
-0.02390932827
0.2360488818
0.334524286
-0.08850708945
-0.1519944044
-0.09900220112
0.04694608373
0.7161537203
-0.07928899971
-0.02894946124
-0.8758805856
0.1102728465
-0.02474916968
0.725965559
0.0534907008
-0.07640909598
-0.7807040326
0.1611105384
-0.1174717021
0.7622403344
0.1103674841
-0.04004032613
-0.6960030395
0.1672480454
-0.0328215429
0.6793963425
0.05339644514
-0.1672220201
-0.4444314501
-0.001754336048
-0.2911422964
0.7168284136