/*--------------------------------*- C++ -*----------------------------------*\
| =========                 |                                                 |
| \\      /  F ield         | OpenFOAM: The Open Source CFD Toolbox           |
|  \\    /   O peration     | Version:  5.x                                   |
|   \\  /    A nd           | Web:      www.OpenFOAM.org                      |
|    \\/     M anipulation  |                                                 |
\*---------------------------------------------------------------------------*/
FoamFile
{
    version     2.0;
    format      ascii;
    class       volScalarField;
    location    "8.8";
    object      rho;
}
// * * * * * * * * * * * * * * * * * * * * * * * * * * * * * * * * * * * * * //

dimensions      [1 -3 0 0 0 0 0];

internalField   nonuniform List<scalar> 
30538
(
1.262812671
1.289414406
1.289815575
1.28985455
1.28987987
1.289946648
1.289963233
1.289978968
1.29000388
1.289985237
1.289890087
1.289769691
1.289728634
1.289752836
1.289770677
1.289732346
1.289667484
1.289618777
1.289713821
1.296993906
1.262780916
1.289411936
1.289856043
1.289905012
1.289910362
1.289968494
1.28998726
1.289997812
1.289998238
1.289982886
1.28993455
1.289848037
1.289785455
1.289755508
1.289753749
1.289743867
1.289724742
1.289701994
1.289793878
1.296978567
1.263120678
1.289369328
1.289849225
1.289912077
1.289901238
1.289952556
1.289974338
1.289981706
1.289957644
1.289945435
1.289950376
1.289915466
1.289830753
1.289735203
1.289710047
1.289733668
1.289766704
1.289769582
1.2898539
1.297115137
1.263032156
1.289332858
1.289823438
1.289894683
1.289877373
1.2899232
1.289953743
1.289968006
1.289932035
1.289921379
1.289957262
1.289961838
1.289873841
1.289744745
1.289709048
1.289752036
1.289807889
1.289813315
1.289878714
1.296975805
1.263920238
1.289356496
1.289798901
1.289862951
1.289847791
1.28988579
1.289919954
1.289953251
1.289936481
1.289922259
1.289945103
1.289959682
1.289894452
1.289782232
1.289753594
1.289792822
1.289834839
1.289821895
1.289868489
1.297278703
1.263956376
1.289404651
1.289784318
1.289824519
1.289814691
1.289848056
1.289880297
1.289936463
1.289958577
1.289937722
1.289919395
1.289919914
1.289890345
1.289830483
1.289817917
1.28983362
1.289840047
1.289806574
1.289844782
1.296995379
1.265470239
1.289462218
1.289770518
1.289786914
1.289780085
1.289816948
1.289850172
1.289918126
1.289968934
1.289951965
1.289905478
1.289884648
1.289880077
1.28987029
1.28986819
1.289852397
1.289827357
1.289789956
1.289840938
1.297397773
1.265549285
1.289464608
1.289752701
1.28975472
1.289746457
1.289793407
1.28983332
1.289897207
1.289954199
1.289957302
1.289914036
1.289875242
1.289875595
1.28989619
1.289894786
1.28985022
1.289808181
1.289785667
1.289858011
1.296952155
1.267668596
1.289472762
1.289733782
1.289733423
1.289722511
1.289776739
1.289824774
1.289874516
1.289921973
1.2899521
1.289937248
1.289883974
1.289875008
1.289906886
1.28990748
1.289845905
1.289798796
1.289791263
1.289881331
1.297326318
1.267763109
1.289462404
1.289717724
1.289722915
1.289707476
1.289759253
1.289810954
1.289857277
1.289895866
1.289943628
1.289944376
1.289891168
1.289871797
1.289907391
1.28991479
1.28985657
1.289809919
1.289801846
1.289879883
1.296537481
1.270534512
1.289505889
1.289703836
1.289716675
1.28970287
1.289744739
1.289793885
1.289848276
1.289889376
1.289926524
1.289926035
1.289889639
1.289873286
1.289899542
1.289916273
1.289878231
1.289838792
1.289810031
1.289850955
1.296733944
1.27058965
1.289527628
1.289690352
1.289709896
1.289704909
1.289737987
1.289782467
1.289847255
1.289887263
1.289899557
1.289890213
1.289885742
1.289882462
1.289892421
1.289904094
1.289891443
1.289867574
1.289816397
1.289814439
1.295627038
1.274093218
1.28957542
1.289677399
1.289702192
1.289715317
1.28974955
1.289786065
1.289847973
1.289873357
1.289858278
1.289853625
1.289887517
1.289899498
1.289882351
1.289875057
1.28988013
1.289876779
1.289819557
1.289794379
1.295765785
1.274022327
1.289573604
1.289669242
1.289695599
1.289727569
1.289772422
1.289803004
1.28984477
1.289844666
1.289816694
1.289827676
1.289889906
1.289909878
1.289867609
1.289837899
1.289848707
1.28986063
1.289820158
1.289799835
1.294419217
1.278182431
1.289605381
1.289673493
1.289696015
1.289737467
1.289790928
1.289815503
1.289832742
1.28981495
1.289793687
1.289818024
1.289881476
1.289900866
1.289847261
1.289810039
1.289819517
1.289831642
1.289814231
1.28981601
1.294480619
1.277893778
1.289615521
1.28969277
1.289705592
1.289736333
1.289786203
1.289805489
1.289810811
1.289799056
1.289793206
1.289817082
1.289856766
1.289863582
1.289821411
1.289803057
1.289807042
1.289809585
1.289803548
1.289821812
1.292941948
1.28269159
1.28967203
1.289722511
1.289721659
1.28972434
1.289761939
1.289776454
1.289785852
1.289797037
1.289807451
1.289821061
1.289822688
1.289809032
1.289794512
1.289804613
1.28981065
1.289800214
1.289787348
1.289805105
1.292866901
1.282086182
1.289701225
1.289751024
1.289731539
1.289710138
1.289722886
1.289744055
1.289758212
1.289795728
1.289814662
1.289820397
1.289790507
1.289762756
1.289772596
1.28980112
1.289814606
1.289795322
1.289771299
1.289778307
1.291220034
1.287471325
1.289210037
1.289756173
1.288979563
1.28971193
1.288870798
1.289700474
1.289060408
1.289765536
1.289379549
1.28980759
1.289550428
1.289758265
1.289657892
1.289836707
1.289766039
1.289837285
1.289731068
1.289770294
1.291145389
1.320763756
1.245744343
1.312780622
1.240032105
1.303552165
1.239547271
1.297688129
1.244300339
1.296149376
1.252983841
1.298561313
1.26352153
1.302652012
1.273190269
1.305720439
1.279396142
1.306057608
1.280867146
1.303511744
1.278305505
1.258175906
1.289276774
1.289846712
1.289925468
1.289900442
1.289952079
1.289956831
1.289970181
1.289975506
1.289977171
1.289932114
1.289822105
1.2897405
1.289729207
1.289763717
1.289755917
1.289701585
1.289654514
1.289786504
1.29896451
1.258130696
1.289312551
1.289871155
1.28994277
1.289928329
1.289979583
1.289991506
1.290009312
1.290000118
1.289980288
1.289946454
1.289873163
1.289799306
1.289755515
1.289764181
1.289763162
1.289741084
1.289717362
1.289845157
1.298970407
1.258524945
1.289317223
1.28983999
1.289901563
1.289908741
1.289967014
1.289991573
1.290016974
1.289995267
1.289954558
1.289931131
1.289901915
1.289842005
1.289764035
1.289738488
1.289742456
1.289760028
1.289764815
1.289884577
1.299188774
1.258413096
1.289304356
1.289791856
1.28984725
1.289875061
1.289942554
1.289974892
1.29001317
1.289996688
1.28995028
1.289923417
1.289918439
1.289879332
1.289790196
1.289740955
1.289744711
1.28978286
1.289801748
1.28990927
1.299143363
1.259384903
1.289322513
1.289767435
1.289809928
1.289847373
1.289912436
1.289935474
1.289986247
1.290003925
1.289968506
1.289921406
1.289913482
1.289898717
1.289830639
1.289774899
1.289767329
1.289801307
1.289817029
1.289910245
1.299562649
1.25936799
1.289346016
1.289769374
1.289798031
1.289826508
1.289881334
1.289884813
1.289946231
1.290005226
1.289987358
1.28992209
1.289897825
1.289899767
1.289868005
1.289820229
1.289798927
1.289810704
1.289811099
1.289891949
1.29940292
1.261030666
1.289387377
1.289783787
1.289797925
1.289799512
1.289850728
1.289857116
1.289917431
1.289981667
1.289981612
1.289927593
1.289895478
1.289898925
1.289888732
1.289855545
1.2898274
1.289815821
1.28979751
1.289870912
1.299867422
1.261116068
1.289384932
1.289784507
1.289789243
1.289761485
1.289817628
1.289856833
1.289908576
1.289938775
1.289950101
1.28993501
1.289911033
1.289899594
1.289890368
1.289875059
1.289850075
1.289822877
1.289791947
1.289859867
1.29944092
1.263501266
1.289393807
1.289761619
1.289768771
1.289723786
1.289789331
1.289866062
1.289906716
1.289893823
1.289914885
1.289947951
1.289935757
1.289898272
1.289876127
1.289882862
1.289870062
1.289837285
1.289797763
1.289859489
1.299783403
1.263672187
1.289378558
1.289726817
1.289748124
1.289705534
1.289770245
1.289859214
1.289898
1.289866296
1.289897059
1.289957652
1.289949187
1.289885803
1.289857746
1.289884195
1.289888532
1.289855765
1.289809291
1.289864473
1.298939864
1.266850116
1.289432197
1.28970606
1.289738878
1.289712212
1.289768885
1.289834346
1.289876758
1.289867509
1.289897802
1.289947875
1.289940271
1.289874027
1.289850551
1.289884246
1.289898342
1.289869383
1.289817789
1.289862309
1.299048829
1.267025701
1.289478694
1.289704871
1.289736357
1.289733679
1.289778798
1.289803328
1.289851518
1.289883629
1.28990285
1.289917753
1.28991441
1.289874513
1.289861156
1.289883294
1.289893106
1.289868361
1.289820349
1.289855228
1.297763753
1.271073244
1.289565721
1.289712796
1.289729556
1.289752354
1.289792741
1.289785366
1.289832073
1.289891512
1.289895954
1.289874158
1.289882152
1.289889431
1.289885316
1.289877489
1.289869456
1.289851542
1.289817868
1.289845041
1.297711947
1.271151061
1.289591551
1.289714957
1.289715975
1.289756014
1.289798443
1.289785022
1.289823946
1.289883881
1.289874212
1.289832273
1.289851142
1.289904447
1.289904579
1.289862498
1.289834538
1.289825065
1.289813413
1.289842521
1.296113953
1.275968797
1.289637096
1.2897097
1.289706187
1.289748493
1.28979515
1.289794038
1.28982496
1.289863416
1.289847885
1.289806441
1.289826719
1.289895744
1.2898995
1.289847395
1.289805638
1.289800673
1.289807341
1.289841333
1.295941776
1.275820076
1.289638942
1.289709826
1.289713012
1.289741178
1.28978325
1.289796157
1.289824463
1.289840552
1.289824489
1.289799179
1.289810634
1.289858225
1.289868836
1.289833428
1.289793029
1.289787217
1.289798703
1.28983356
1.294113143
1.281379509
1.289686809
1.289725363
1.289736329
1.289743094
1.289769382
1.289790047
1.289819217
1.28981957
1.289808234
1.289806349
1.289802385
1.289808575
1.289823677
1.289822815
1.289797423
1.289784519
1.289786265
1.289811796
1.293824283
1.280831271
1.289706389
1.289753104
1.289753423
1.289749868
1.289746465
1.289778316
1.289800324
1.289797698
1.289789978
1.289816436
1.289798613
1.28976934
1.289785483
1.289809291
1.289804756
1.289784601
1.289773187
1.289786585
1.291874187
1.287060035
1.289147508
1.289754745
1.288904112
1.289733267
1.288790703
1.289710208
1.289014193
1.289739117
1.289304053
1.289808861
1.289568699
1.289768792
1.289664458
1.289849319
1.289771167
1.289838356
1.289738489
1.289775823
1.291588334
1.321553456
1.242873457
1.311961616
1.235938548
1.300948357
1.235092725
1.294258132
1.240450114
1.293460058
1.25041846
1.297580975
1.26230237
1.303360046
1.273045917
1.30776155
1.279678732
1.308573157
1.280804898
1.305608214
1.277445741
1.252381344
1.289072152
1.289889168
1.289985834
1.28990245
1.289943043
1.289957317
1.28997714
1.28993315
1.289938371
1.289964661
1.289874751
1.289737567
1.289684506
1.289743392
1.289771907
1.28974077
1.289690588
1.289850726
1.303981685
1.252347111
1.289170786
1.289877094
1.289950978
1.289929971
1.289973391
1.289982952
1.290021474
1.290002079
1.28996908
1.289941709
1.289890858
1.289812385
1.289753008
1.289755597
1.28975829
1.289742506
1.289726623
1.289897821
1.304030336
1.252758959
1.289265044
1.289823881
1.289863009
1.289907824
1.289962743
1.28997806
1.290043509
1.290044297
1.289970505
1.28988845
1.289871326
1.289862409
1.289804973
1.289751319
1.289719484
1.289719242
1.289741186
1.289924302
1.304459016
1.252639265
1.289311088
1.28977436
1.289789926
1.289872366
1.289945078
1.289964327
1.290042836
1.290066452
1.289984536
1.289861819
1.289853279
1.289889084
1.289851545
1.289765576
1.289705902
1.289716192
1.289763812
1.28994793
1.304516164
1.253627381
1.289302493
1.289752242
1.289763267
1.289854545
1.28993579
1.289929524
1.289995475
1.290054969
1.290020066
1.28989228
1.2898537
1.289882916
1.289877427
1.289795503
1.289722672
1.289730414
1.289781498
1.28995822
1.305258798
1.253603719
1.289230912
1.289756578
1.289776012
1.289850399
1.28993084
1.289880569
1.289922174
1.290012277
1.290041226
1.289955478
1.289874496
1.289864682
1.28987706
1.289825013
1.2897592
1.289755126
1.289788687
1.289938722
1.305135034
1.2553499
1.289227189
1.289786002
1.289803899
1.289831548
1.289907191
1.289863579
1.289886806
1.289957148
1.290013063
1.289992819
1.289910319
1.289866715
1.289871624
1.289845613
1.289798912
1.289786891
1.289788379
1.289899297
1.305833995
1.255501286
1.289251476
1.28980315
1.289809375
1.289786046
1.289855234
1.289874712
1.289900854
1.289905745
1.289942671
1.289977425
1.289941001
1.28989272
1.289867217
1.289850752
1.28983285
1.289821545
1.289790915
1.289861214
1.305313883
1.258160991
1.289327945
1.289783394
1.289783123
1.289729178
1.289795299
1.289896824
1.289938562
1.289870022
1.289868286
1.28993164
1.289967894
1.289926607
1.289853881
1.289835922
1.289852696
1.289852872
1.289802362
1.289843573
1.305665204
1.258480141
1.289334087
1.289735621
1.289748905
1.289699255
1.289768006
1.289894737
1.289948961
1.289855875
1.289834832
1.289914646
1.289980906
1.289931616
1.289829172
1.289810942
1.289857293
1.289872095
1.289817187
1.289855526
1.304546268
1.262129404
1.28938187
1.289712185
1.289737276
1.289715052
1.289791676
1.289871825
1.289912114
1.289858074
1.289852144
1.289923884
1.289972883
1.289911517
1.289814429
1.289803249
1.289852524
1.289869495
1.289825808
1.289876648
1.304429597
1.262397335
1.289397986
1.289728084
1.289747055
1.28975925
1.289835203
1.289832684
1.28984434
1.289866399
1.289899843
1.289936208
1.289931533
1.289871812
1.289822285
1.289822862
1.289846434
1.289847031
1.289823611
1.289893434
1.302727666
1.267195138
1.289504191
1.289767237
1.289753395
1.289788746
1.289862774
1.289796818
1.289792069
1.28987737
1.289935026
1.289923015
1.289868718
1.289844309
1.28985494
1.289858923
1.289839178
1.289817056
1.289811085
1.289888823
1.302233796
1.267340294
1.289555864
1.289783397
1.289749641
1.289785791
1.289843035
1.289772907
1.289776532
1.289888975
1.289938233
1.289876074
1.289806854
1.28983269
1.289888606
1.289883853
1.289826871
1.289787886
1.289793102
1.289870427
1.300051858
1.273163704
1.289648845
1.2897684
1.289742684
1.289757703
1.28979687
1.289772314
1.289799853
1.289891447
1.289907834
1.289819976
1.289765704
1.289828249
1.289899324
1.289883896
1.289809507
1.289770477
1.28977879
1.289838664
1.299293377
1.273011554
1.289657608
1.28974082
1.289748158
1.28974793
1.289763172
1.289780735
1.289836311
1.289877467
1.289857937
1.28978434
1.289755847
1.28981525
1.289879567
1.289856875
1.289790626
1.289762016
1.289768763
1.289817359
1.296870492
1.279766658
1.289710201
1.289728935
1.28976829
1.289769483
1.28975661
1.289791721
1.289863134
1.289845743
1.289804989
1.289776209
1.28977207
1.289802863
1.289839476
1.289824795
1.28977683
1.289759701
1.289763412
1.289795407
1.295974777
1.279058102
1.289705136
1.289740905
1.289768229
1.289804281
1.289752307
1.2897976
1.289855717
1.289808231
1.28975919
1.289783695
1.289792724
1.289794559
1.289804214
1.289799942
1.289773886
1.289758226
1.289759149
1.289782607
1.293437781
1.286594395
1.288971379
1.289730622
1.288675099
1.289791046
1.288598447
1.28973091
1.28894389
1.28973855
1.289246042
1.289787274
1.289612547
1.28980449
1.28973749
1.28984702
1.289808485
1.289823026
1.289778959
1.289788111
1.292542501
1.325344424
1.2364312
1.31368061
1.228133072
1.30039071
1.227607116
1.292340093
1.235251269
1.291617838
1.248529499
1.296766974
1.263898827
1.30379067
1.277483407
1.30893742
1.285654934
1.309245436
1.28632812
1.304521243
1.281429795
1.237811727
1.288669751
1.289901934
1.289965083
1.289871755
1.289958138
1.289991668
1.290006719
1.289920591
1.289913637
1.289921862
1.289879694
1.289797516
1.28971143
1.289665418
1.289673682
1.289718171
1.28973671
1.289933971
1.313041291
1.237631799
1.288786215
1.289838891
1.28988632
1.289912288
1.289981264
1.289968557
1.290020446
1.290002085
1.289953791
1.289889376
1.2898767
1.289867239
1.28978614
1.289713157
1.28970339
1.289727195
1.289740887
1.289951625
1.313291892
1.238065183
1.288939001
1.289795719
1.289818295
1.289903236
1.289954312
1.289923249
1.290016821
1.290059095
1.289976831
1.289846123
1.28984498
1.289880806
1.289827159
1.289747641
1.289707676
1.28969835
1.289707356
1.289937912
1.314075182
1.237626272
1.289046355
1.289810969
1.289824866
1.28988034
1.289924616
1.289912785
1.290023149
1.290076
1.289998433
1.289853689
1.289826168
1.289851167
1.289838466
1.289784197
1.28971798
1.289673681
1.289689041
1.289937059
1.314638107
1.238706372
1.288994677
1.289806736
1.28984602
1.289864236
1.289926947
1.289913589
1.289976982
1.290019962
1.290037528
1.289934194
1.289825813
1.289783633
1.289823691
1.289826585
1.289736646
1.289664691
1.289693566
1.289953532
1.315896255
1.238314474
1.28877115
1.289760175
1.289845486
1.28986072
1.289954002
1.289918438
1.289880256
1.289911158
1.290057064
1.29004784
1.28984931
1.289726974
1.289810654
1.289860152
1.289759317
1.289676691
1.289718254
1.289966825
1.316323743
1.240471838
1.288728711
1.289743179
1.289834059
1.289850297
1.289947151
1.289912858
1.289834862
1.289839274
1.290027971
1.290375233
1.289893371
1.289747085
1.289820505
1.289865999
1.289779124
1.289714224
1.289750773
1.289945864
1.31733171
1.240489919
1.288854058
1.289757022
1.28980623
1.289825676
1.289890555
1.289890019
1.289867842
1.289848436
1.289955214
1.29156299
1.289924768
1.289837344
1.289852445
1.289844712
1.28979112
1.289768728
1.289779876
1.289903278
1.317001073
1.244019029
1.289127851
1.289771024
1.28976301
1.289772917
1.289809717
1.289871069
1.289939759
1.28990107
1.289852738
1.289970047
1.289924351
1.289941057
1.289878767
1.28979798
1.289786668
1.289816383
1.289801409
1.289857655
1.317197399
1.244553314
1.289230674
1.289755673
1.289715947
1.289731749
1.289773527
1.289861356
1.289977664
1.289939644
1.28980751
1.289785576
1.289937117
1.290000522
1.289868115
1.289739549
1.289762443
1.289831473
1.289816966
1.289852029
1.31574741
1.249530223
1.289267149
1.28974244
1.289703741
1.289730087
1.289815214
1.289867235
1.289948267
1.289919539
1.289809465
1.28979579
1.289949842
1.28998132
1.289838863
1.289713934
1.289735336
1.289813323
1.289826252
1.28987526
1.314998859
1.250111154
1.289161301
1.289753678
1.289725676
1.289763091
1.289887585
1.289878898
1.289865359
1.289855091
1.289850286
1.289873173
1.289926564
1.289899033
1.289811644
1.289736041
1.289732412
1.289783424
1.289826277
1.289923521
1.312434046
1.256812712
1.289241248
1.289806394
1.289765952
1.289787708
1.289916725
1.289873955
1.289788307
1.289797482
1.289903127
1.289939537
1.289862358
1.289802379
1.289807787
1.289804071
1.289762348
1.289763272
1.289812268
1.289931627
1.310979202
1.257467083
1.289322635
1.289840265
1.289809099
1.289784766
1.289872684
1.289845233
1.289762502
1.289790434
1.289947237
1.289964223
1.289790894
1.289721247
1.2898208
1.289878301
1.28980998
1.289753793
1.289782328
1.289900065
1.307604352
1.265615697
1.289545379
1.289839071
1.289837623
1.28975692
1.28979718
1.289823621
1.289789401
1.28982356
1.28995387
1.289935139
1.289748928
1.28969399
1.289831784
1.289911216
1.289842726
1.289756382
1.289743308
1.28981617
1.305721062
1.265899158
1.28962116
1.289806118
1.289845932
1.28976248
1.289753328
1.289807552
1.289845576
1.289861919
1.289903579
1.289866808
1.289751065
1.289727066
1.289827126
1.28988128
1.289835027
1.289763033
1.289716087
1.289750502
1.30204332
1.275333251
1.289721801
1.289763678
1.289831137
1.289815388
1.289757989
1.28978582
1.289891914
1.289868794
1.289809884
1.28978592
1.289794827
1.28980428
1.289794243
1.289794204
1.289794123
1.289772027
1.289722431
1.289717271
1.299995387
1.274682666
1.289677665
1.289730441
1.289754019
1.289871462
1.289756082
1.289749982
1.289869536
1.289849911
1.289712051
1.289700245
1.28982649
1.289881132
1.289774855
1.289710542
1.289748242
1.289783803
1.289756839
1.289737677
1.2962663
1.285122547
1.288648998
1.289666362
1.288110541
1.289779137
1.288086878
1.289561598
1.28857172
1.289710338
1.288992683
1.289657715
1.289611547
1.2899239
1.289745506
1.289756475
1.289789954
1.289848851
1.289820804
1.289778796
1.294254858
1.328043034
1.226817084
1.310952155
1.214580309
1.291222717
1.212985885
1.279824869
1.222990037
1.281697055
1.240794466
1.293062699
1.26111482
1.30632524
1.278731678
1.316426008
1.28862135
1.318853867
1.287487691
1.31223128
1.278847134
1.223634768
1.288383601
1.289882023
1.289832305
1.289874368
1.289959492
1.289995251
1.290055472
1.289973416
1.289796577
1.289765997
1.289909587
1.289875612
1.289644636
1.289508343
1.289531727
1.289648573
1.289736621
1.290063322
1.327041412
1.223275963
1.288369782
1.28978906
1.289771426
1.289911259
1.290014788
1.289983248
1.290003275
1.289983332
1.289942203
1.289863368
1.289890088
1.289884255
1.289804451
1.289687955
1.28963306
1.289661967
1.289713274
1.290043433
1.327480012
1.223517683
1.288431231
1.289788204
1.289793857
1.289912943
1.289981433
1.289924116
1.289936182
1.289976281
1.290056023
1.28990606
1.289791296
1.289806853
1.289888184
1.289824303
1.289710233
1.289647579
1.289653244
1.289973906
1.328973188
1.22268836
1.288536286
1.289906119
1.28991802
1.289903096
1.289893675
1.28987397
1.289929407
1.289977966
1.290081615
1.289929541
1.289695948
1.289713175
1.289860452
1.289868687
1.289760738
1.289641746
1.289610022
1.289916824
1.330018018
1.223571078
1.288489679
1.289954934
1.290002927
1.289863026
1.289841494
1.289915804
1.289948158
1.289898597
1.29000402
1.289988728
1.28973836
1.289670513
1.289759044
1.289824497
1.289776419
1.289649398
1.289609569
1.289904724
1.332351288
1.222917847
1.288226515
1.289847631
1.28997677
1.289808014
1.289843339
1.290030365
1.2899724
1.289786445
1.289865715
1.290673443
1.289929305
1.289741144
1.289669678
1.289747828
1.289760352
1.289670262
1.289655163
1.289937822
1.333133644
1.225090197
1.288205531
1.289724196
1.28987965
1.289805853
1.289855681
1.290056587
1.289972688
1.289762579
1.29024174
1.309685712
1.290261122
1.289825864
1.289662497
1.289708572
1.289754385
1.289706276
1.28971085
1.289944608
1.335047756
1.225147137
1.2883784
1.289676206
1.289790785
1.289858493
1.289857327
1.289937781
1.289948868
1.289849491
1.291957812
1.343330338
1.291086532
1.289854503
1.28972177
1.289717438
1.289762596
1.28974741
1.289751463
1.289917004
1.334612846
1.22917753
1.288818861
1.289712166
1.289742254
1.289886466
1.289823071
1.289796429
1.289948266
1.289970751
1.290012031
1.298332124
1.289932109
1.289892358
1.289813355
1.28974903
1.289762837
1.289758043
1.289759463
1.289860667
1.334939833
1.230148907
1.28901585
1.289776935
1.289715789
1.289854959
1.289796532
1.289738817
1.289960706
1.29009503
1.28988576
1.289893149
1.289794573
1.289960635
1.289902129
1.289761977
1.289732416
1.28973067
1.289744552
1.289827647
1.332708703
1.236203968
1.289086672
1.289799918
1.289705067
1.289808295
1.289817456
1.289784554
1.289960182
1.290071516
1.289854477
1.289648021
1.289800012
1.289974544
1.289918572
1.289754784
1.289686857
1.289695422
1.289739953
1.289829418
1.331225565
1.237334748
1.288867528
1.289777118
1.289718745
1.289772636
1.289853103
1.289892288
1.289944966
1.289907016
1.289801208
1.28974992
1.28985084
1.289891607
1.289845209
1.289726422
1.289658351
1.289681788
1.289755211
1.289884099
1.327337764
1.245947609
1.288946558
1.289802181
1.289774126
1.28974462
1.289852914
1.289997946
1.289918099
1.289717377
1.289752918
1.289892366
1.289885029
1.289786944
1.289757693
1.289727551
1.289676978
1.289697663
1.289769927
1.289908951
1.324388602
1.247075181
1.289029281
1.289845806
1.289864634
1.28974039
1.289812971
1.290004067
1.289891711
1.289638059
1.289761311
1.289980154
1.289869094
1.289702323
1.289706463
1.289761075
1.289735483
1.289726858
1.289763101
1.289891582
1.319292033
1.257856007
1.28942674
1.289882667
1.289936953
1.289759404
1.28975988
1.289936835
1.289881976
1.289706182
1.289825051
1.289984042
1.289838415
1.28967514
1.289700949
1.289798397
1.289796601
1.289755958
1.289732824
1.289799925
1.315434126
1.258406021
1.289571779
1.289886271
1.289935365
1.289799127
1.28976452
1.289856512
1.289857126
1.289804827
1.289872046
1.289918796
1.28982073
1.28971299
1.289725576
1.289798876
1.289814966
1.289768952
1.289699994
1.289718539
1.309997879
1.270849246
1.289741801
1.289844746
1.28985613
1.28985697
1.289837069
1.289787069
1.289810655
1.289850512
1.289863225
1.2898253
1.289814455
1.289791453
1.289750503
1.289751993
1.289782322
1.289779014
1.289713153
1.289667874
1.305944368
1.269919938
1.289608977
1.289752384
1.289668142
1.289903171
1.289858243
1.289691343
1.289689471
1.289855278
1.289808667
1.289709614
1.289794032
1.289858169
1.289758358
1.28968405
1.289733862
1.289794419
1.289765377
1.289689702
1.300607879
1.28371531
1.28803185
1.289623454
1.28711052
1.289777591
1.28738266
1.289426092
1.28790396
1.28969468
1.288996243
1.28964035
1.289598608
1.289932492
1.289864269
1.289778481
1.289909227
1.289884502
1.289924983
1.28975646
1.296700053
1.335376917
1.212484692
1.31332483
1.196309882
1.2876019
1.195181641
1.27253563
1.2107728
1.274890159
1.236391875
1.289271841
1.264926093
1.306836494
1.289864366
1.320421981
1.304029365
1.322098307
1.30148937
1.310470763
1.288355689
1.196382614
1.287338581
1.289776804
1.289824158
1.289914373
1.289887402
1.289922364
1.29003128
1.289885307
1.289754263
1.289770499
1.28979662
1.28961922
1.289611545
1.289753072
1.289595833
1.289482636
1.289529036
1.290024634
1.352132519
1.195436094
1.287121219
1.289711234
1.289765183
1.289914416
1.290034323
1.290003423
1.289910225
1.289905671
1.290054302
1.289966051
1.289706867
1.28957155
1.289717577
1.289757074
1.289631738
1.289535877
1.289611046
1.290058774
1.3533594
1.195368256
1.286985812
1.289738759
1.289814288
1.289904684
1.290026062
1.289983508
1.289839761
1.28991583
1.290131972
1.289950425
1.2896912
1.289663189
1.289761948
1.289666189
1.289635239
1.28959067
1.289643696
1.289980768
1.356338516
1.193414072
1.286998379
1.289902188
1.289956806
1.289901146
1.289890629
1.289860851
1.289859479
1.289921194
1.289911912
1.289747732
1.289786919
1.289884047
1.289761963
1.289584082
1.289643997
1.289661708
1.289651481
1.289844053
1.359440657
1.193931091
1.287108142
1.290015768
1.290066849
1.289812785
1.28971669
1.289894756
1.290042584
1.289878025
1.289668933
1.2904244
1.28992984
1.290032502
1.289682038
1.289480521
1.289667634
1.289735625
1.289646755
1.289682669
1.363962259
1.192317406
1.286974216
1.289953773
1.290039765
1.289695068
1.289621743
1.290072638
1.290303564
1.289864476
1.290089064
1.310040492
1.290190968
1.290051385
1.289551249
1.289385202
1.289683885
1.289776617
1.289656278
1.289594306
1.367040348
1.194717146
1.286990413
1.289730462
1.289882538
1.289727909
1.289684085
1.290088017
1.290356069
1.290284366
1.304217584
1.526058093
1.297239673
1.290068094
1.289478096
1.289360559
1.289698404
1.289779944
1.289682922
1.289570557
1.370410822
1.194214798
1.28700934
1.289514783
1.289750933
1.289899033
1.289850058
1.289885307
1.290155254
1.291312797
1.326491485
1.550069288
1.313343791
1.290491074
1.289481598
1.289426154
1.289720391
1.289768344
1.289713833
1.289590119
1.37105544
1.199383993
1.287469043
1.289540016
1.289728298
1.290045666
1.289958437
1.289617469
1.289844673
1.290344276
1.298000672
1.400696477
1.293731146
1.289765164
1.289586641
1.289557593
1.289745518
1.289741333
1.289716228
1.289574773
1.371063979
1.200686588
1.287743162
1.289730059
1.289781025
1.290041633
1.289950349
1.289478484
1.289653101
1.290232367
1.290460314
1.300188344
1.28954167
1.289732914
1.289761619
1.289699678
1.289746301
1.289696042
1.289683965
1.289557128
1.367811149
1.209266106
1.288131108
1.289856673
1.289795566
1.289937294
1.289886655
1.289554429
1.289681077
1.290123593
1.290153827
1.290159828
1.289556134
1.289795878
1.289909277
1.289788924
1.289723847
1.289638466
1.289641566
1.289549727
1.364087353
1.211248813
1.288037837
1.289786978
1.289773975
1.289822456
1.289803834
1.28976276
1.289878474
1.289969185
1.289898993
1.289737089
1.289657521
1.289835397
1.289931959
1.289792947
1.289684728
1.289602255
1.289619276
1.289600993
1.357218092
1.223942705
1.288367787
1.289706555
1.289788621
1.289734689
1.289731985
1.289978708
1.290124996
1.289891465
1.289659853
1.289653049
1.289794099
1.289857779
1.289823365
1.289708187
1.289647734
1.289607832
1.289626432
1.289649128
1.350716721
1.226342084
1.28848491
1.289718717
1.289850668
1.289752125
1.289695961
1.29000205
1.290247039
1.289851972
1.289486378
1.289628146
1.289935919
1.289864932
1.28963048
1.289583294
1.289651618
1.289662292
1.289650755
1.289698825
1.341582263
1.24202521
1.289151494
1.289807342
1.289932676
1.289878961
1.289677917
1.289889692
1.290185696
1.289830171
1.289449221
1.289672196
1.290006201
1.289828448
1.289498655
1.289548533
1.289701122
1.289736622
1.289682112
1.289688863
1.333877494
1.24355983
1.289353454
1.289920049
1.28992483
1.289920076
1.289731675
1.28981486
1.289928909
1.289731459
1.289593512
1.289802635
1.289972929
1.289756104
1.289517162
1.289611582
1.289749134
1.289788378
1.289715604
1.289702523
1.324552354
1.261663884
1.289688455
1.289976531
1.289834877
1.289846255
1.28990641
1.289837257
1.289621525
1.289638462
1.289877348
1.289919265
1.289817521
1.289711143
1.289680152
1.289700934
1.289719296
1.289768114
1.289757159
1.28972143
1.316891659
1.260666708
1.289427349
1.289875827
1.289577203
1.289767156
1.289989867
1.289835437
1.289313653
1.289649531
1.290143066
1.289933969
1.28958172
1.289700838
1.289882675
1.289756586
1.289634367
1.289695502
1.289797099
1.289784016
1.30830097
1.280806709
1.28696031
1.289653675
1.285340536
1.28932092
1.285750948
1.288996625
1.286386947
1.289205294
1.288997403
1.289760065
1.28921863
1.289886609
1.290213237
1.289942973
1.289872764
1.289654661
1.289934495
1.289757126
1.301045041
1.340927452
1.193124974
1.308458435
1.169112314
1.268679399
1.166202995
1.244874392
1.187979608
1.253156513
1.224220044
1.280646658
1.263056601
1.311683805
1.29695446
1.337515117
1.315514558
1.344945857
1.307443843
1.327809159
1.284689464
1.169063905
1.285615525
1.289662947
1.289917774
1.289943487
1.289730548
1.289796433
1.289902135
1.290057096
1.290006386
1.289595597
1.289462445
1.28964464
1.289770475
1.289728058
1.289604061
1.289391856
1.28937741
1.289814383
1.382783613
1.16700476
1.285345173
1.28974231
1.289951607
1.28990398
1.289842612
1.290013779
1.289961731
1.289805881
1.289889447
1.289811455
1.289575919
1.289468512
1.289567511
1.289655422
1.289618282
1.289522693
1.289519056
1.289874134
1.385114096
1.166294326
1.285115118
1.289735664
1.289939732
1.289917872
1.289904797
1.290027894
1.289975869
1.289642595
1.289741222
1.28998404
1.289721889