/*--------------------------------*- C++ -*----------------------------------*\
| =========                 |                                                 |
| \\      /  F ield         | OpenFOAM: The Open Source CFD Toolbox           |
|  \\    /   O peration     | Version:  5.x                                   |
|   \\  /    A nd           | Web:      www.OpenFOAM.org                      |
|    \\/     M anipulation  |                                                 |
\*---------------------------------------------------------------------------*/
FoamFile
{
    version     2.0;
    format      ascii;
    class       volScalarField;
    location    "8.8";
    object      T;
}
// * * * * * * * * * * * * * * * * * * * * * * * * * * * * * * * * * * * * * //

dimensions      [0 0 0 1 0 0 0];

internalField   nonuniform List<scalar> 
30538
(
278.8355277
273.1110599
273.010922
273.0122741
273.014726
273.0216985
273.0246275
273.0273653
273.030535
273.029836
273.0220379
273.0124403
273.0096678
273.0129419
273.0154422
273.0127861
273.0074423
273.0029516
272.9799142
271.4601721
278.837565
273.1013511
273.0057429
273.0080221
273.0087885
273.0150341
273.0181042
273.0202896
273.0212276
273.0206431
273.0166709
273.0099275
273.0052081
273.0037476
273.004523
273.0043271
273.002981
273.0007957
272.9778076
271.47212
278.7546375
273.0943838
273.0055569
273.0092473
273.0086687
273.0143242
273.017473
273.0191779
273.0178402
273.0170954
273.01748
273.0149803
273.0082388
273.00097
272.9996673
273.0023784
273.0056744
273.0058709
272.9833219
271.453498
278.7686173
273.0894333
273.0040064
273.0086456
273.0076187
273.012647
273.0163124
273.0183223
273.0156214
273.0145528
273.0172876
273.0179317
273.0109003
273.0005443
272.9982452
273.0026581
273.0081823
273.0088358
272.9863724
271.4863041
278.574289
273.0847571
273.0026261
273.0069709
273.0061114
273.0103792
273.0140361
273.0173771
273.0157167
273.0140389
273.0153473
273.0166395
273.0114574
273.0025492
273.0008015
273.0049393
273.0094592
273.0088327
272.9861386
271.4199453
278.5733213
273.0858079
273.0021142
273.0047182
273.0043968
273.0081103
273.0113177
273.0159576
273.0172933
273.0147672
273.0122393
273.0122422
273.0100618
273.0055184
273.0053417
273.0075183
273.0091256
273.0069548
272.9854165
271.4751848
278.243954
273.0808693
273.0016034
273.0025494
273.0025075
273.0063141
273.0092407
273.0143954
273.017798
273.015391
273.0102454
273.0084474
273.0083997
273.0082027
273.0089626
273.0086218
273.0075976
273.0052391
272.9862791
271.3923691
278.2245823
273.0772787
273.0007497
273.0007197
273.0005162
273.0049786
273.0081441
273.0125468
273.0161844
273.0153081
273.0104021
273.0071719
273.0076392
273.0101617
273.011056
273.0084022
273.0059223
273.0048575
272.9892951
271.4918847
277.7534407
273.0655202
272.9995883
272.9995816
272.9990735
273.0039842
273.0075703
273.0104685
273.0130792
273.0145036
273.0121416
273.0078453
273.0076512
273.0113247
273.0124651
273.0083819
273.0054448
273.0056189
272.9926713
271.4198968
277.7293031
273.0599949
272.9985455
272.9990662
272.9981004
273.0026611
273.0063772
273.0088311
273.0106524
273.0136633
273.0128814
273.0088402
273.0079843
273.0121567
273.0139251
273.01007
273.007076
273.0070971
272.9943642
271.585138
277.1244793
273.0490319
272.9973624
272.9986066
272.9977228
273.0013474
273.0047416
273.0079234
273.0100921
273.0124026
273.0118506
273.0095529
273.0092564
273.0127883
273.0153447
273.0130902
273.0105492
273.0086196
272.9939654
271.5372351
277.1159841
273.045874
272.9960187
272.9977936
272.9976809
273.0005204
273.0035506
273.0078009
273.0101163
273.0105917
273.0096824
273.0104486
273.0115419
273.0137954
273.0158372
273.0155473
273.0140761
273.0099736
272.9929387
271.7616935
276.3551033
273.033976
272.9944174
272.996678
272.9981822
273.0011715
273.0036632
273.0079498
273.009274
273.0078059
273.0076969
273.0120763
273.0146369
273.0146214
273.0149219
273.0158816
273.0158468
273.0109351
272.993712
271.7298511
276.3677752
273.0286825
272.9932078
272.9955726
272.9987811
273.002797
273.0049956
273.0078515
273.0072938
273.0050957
273.0067116
273.0137217
273.0170846
273.0148914
273.0131221
273.0142897
273.0152371
273.0114491
272.9964611
272.0160325
275.4639749
273.01607
272.9930836
272.9951216
272.9991794
273.0040722
273.0059735
273.0070214
273.0052919
273.0039471
273.0069944
273.0142035
273.0175385
273.0142555
273.011652
273.0124257
273.0131419
273.0110587
273.0005637
272.0090096
275.5245318
273.0126517
272.994457
272.9956361
272.9988033
273.0034646
273.0051038
273.0053964
273.0044704
273.0045984
273.0077689
273.0128668
273.0150073
273.0125026
273.0113413
273.0114265
273.0111904
273.0099049
273.0030529
272.3360187
274.4964774
273.0051931
272.9969523
272.9969799
272.9977004
273.0013308
273.0026965
273.0035214
273.0047499
273.0063161
273.0085902
273.0101856
273.0103748
273.0100101
273.011137
273.0112932
273.0099049
273.0080137
273.003963
272.3500153
274.6312316
273.0064032
272.9996783
273.0005032
272.9966583
273.0009511
273.0001535
273.0035183
273.0049686
273.0081464
273.0085711
273.0074757
273.0058155
273.00735
273.0099188
273.0106212
273.0086112
273.0058213
273.0029946
272.6927355
273.4861949
273.1164528
273.0033866
273.1643593
272.9975914
273.1764677
273.0052323
273.1481994
273.0089388
273.098069
273.0070512
273.0489733
272.9995989
273.024125
272.9973069
273.0161451
272.9957415
273.0093403
272.9990706
272.7054408
266.5927272
282.6461491
268.2166257
283.9462372
270.1061477
284.055863
271.3273607
282.9715828
271.659045
281.0204201
271.1574303
278.6714385
270.2957651
276.5535619
269.668038
275.2197309
269.598193
274.8970477
270.1193243
275.4451796
279.8548602
273.1230054
273.0129038
273.0173204
273.0152774
273.0202409
273.0215347
273.0237423
273.0251695
273.0261802
273.0228108
273.0141111
273.0074343
273.0068535
273.0098755
273.0093126
273.0053317
273.0018538
272.9747886
271.0572107
279.8653853
273.1164933
273.0062865
273.0102443
273.0091117
273.0141387
273.0160042
273.0184991
273.0185756
273.0176235
273.0150893
273.0094119
273.0033022
272.9998475
273.0006498
273.0007206
272.9995351
272.9979684
272.9712524
271.0600429
279.7764018
273.1131194
273.0038387
273.0071288
273.0079123
273.01361
273.0165113
273.019499
273.0182831
273.0152848
273.0134178
273.0113142
273.0062428
272.9997349
272.9975954
272.9981747
273.0004854
273.0014506
272.9752976
271.0200767
279.7993464
273.1100975
273.0001356
273.0030841
273.0057274
273.01226
273.0157495
273.0195946
273.0185373
273.0147055
273.0122805
273.012002
273.0085743
273.0009748
272.9968227
272.997488
273.0016989
273.003972
272.9784653
271.032361
279.5841249
273.1038634
272.9984926
273.0006094
273.0041712
273.0105139
273.0130658
273.0176853
273.0192154
273.0159794
273.011538
273.0107643
273.0093203
273.003437
272.9988019
272.9986451
273.0026007
273.004734
272.9797849
270.9442409
279.5909323
273.1024017
272.9992125
273.0003897
273.0032733
273.0087033
273.0093823
273.0145959
273.0193074
273.0172517
273.0109894
273.0086089
273.0085769
273.0058298
273.0020173
273.0008138
273.0029225
273.0038712
272.9798099
270.974894
279.221801
273.0944853
273.0009039
273.0012073
273.0018371
273.0068692
273.0075533
273.0123672
273.0171564
273.0163843
273.0109129
273.0077336
273.007858
273.0070835
273.0046565
273.0030263
273.0031722
273.0025615
272.9799016
270.8763118
279.1991647
273.0898117
273.0014909
273.0012512
272.999359
273.0046749
273.0079261
273.0117069
273.0133106
273.0133208
273.0111096
273.0086555
273.0075958
273.0070748
273.006323
273.0050762
273.0038927
273.0021628
272.9807472
270.9656682
278.6652234
273.0757918
272.9998694
273.0001526
272.9967226
273.0027002
273.0089254
273.0115015
273.0092187
273.0100006
273.0119735
273.0106435
273.0075043
273.0060559
273.0073258
273.0071743
273.0054951
273.0029587
272.9828242
270.8965015
278.6242905
273.0688684
272.9972186
272.998838
272.9955282
273.0012785
273.0083689
273.0106057
273.0066559
273.0082991
273.0128052
273.0120136
273.0068721
273.0050748
273.0081158
273.009455
273.0077265
273.0044947
272.984949
271.0744521
277.9275098
273.0559394
272.9955073
272.9982552
272.9962341
273.001149
273.0060508
273.0085559
273.0065982
273.0083837
273.0122654
273.0118581
273.0067042
273.0054482
273.0091419
273.0112946
273.0098257
273.0060306
272.9875108
271.052029
277.8953655
273.0537722
272.9954128
272.9980336
272.9980295
273.0018116
273.0031249
273.006138
273.0079183
273.0090457
273.0102684
273.0105731
273.007886
273.0076002
273.0102663
273.0119572
273.0107186
273.007103
272.9891898
271.3193534
277.0142388
273.0420133
272.9958144
272.9972835
272.9994564
273.0027215
273.0012799
273.004277
273.0086272
273.0088693
273.0073265
273.0088969
273.0104209
273.0109708
273.0109839
273.0109872
273.0101828
273.0076725
272.9918776
271.3298196
276.9974924
273.0379522
272.9957294
272.9958599
272.9995118
273.0029082
273.0010058
273.0034963
273.0081615
273.0075322
273.0046077
273.0073406
273.0129276
273.0138123
273.0107772
273.0088845
273.0086244
273.0078511
272.9942992
271.6657034
275.9484784
273.0233704
272.9949525
272.994745
272.9985662
273.0023396
273.0016011
273.0035997
273.0066996
273.0058218
273.0031948
273.0061759
273.0131604
273.0142453
273.0101899
273.0068941
273.0068642
273.0075106
272.9978893
271.7041388
275.9793233
273.0182611
272.9947414
272.9950901
272.9976929
273.0010938
273.0017049
273.0036927
273.0051113
273.004347
273.0032117
273.0054266
273.0104954
273.0120001
273.0091943
273.0058145
273.0056044
273.0065576
272.9996194
272.0894642
274.7838771
273.0073515
272.9959104
272.9969431
272.9976658
272.999799
273.0012102
273.0034821
273.0037037
273.0033969
273.0042271
273.0049598
273.0063567
273.0080862
273.0081178
273.005888
273.0049659
273.0050111
273.0009797
272.1489571
274.9051141
273.0072688
272.9983385
273.0013531
272.9983091
273.0013262
273.0005407
273.0047274
273.0022896
273.0033162
273.005238
273.0049344
273.0027138
273.0044635
273.0064288
273.0058944
273.0042949
273.003163
273.0005254
272.5568218
273.5762586
273.1297128
273.0044306
273.1879428
273.0051286
273.2021886
273.0127862
273.1678535
273.0093573
273.1016201
273.0058341
273.0508309
272.997875
273.0203707
272.9927346
273.0106931
272.9910341
273.0067141
272.9989971
272.6144295
266.4332693
283.2988884
268.3847117
284.8898813
270.6536695
285.0837751
272.0519823
283.8532089
272.2205104
281.5937137
271.3625067
278.9425965
270.1509004
276.5839838
269.2456875
275.1576267
269.0783453
274.9092399
269.6868712
275.6314738
281.1393854
273.1355155
273.0186968
273.0246822
273.017163
273.0205204
273.0219962
273.0244761
273.0217296
273.0231832
273.0260981
273.0188741
273.0065468
273.0010981
273.0052438
273.0075278
273.0063826
273.0036305
272.9657527
270.0175511
281.1553976
273.1342727
273.0088373
273.0129957
273.0108591
273.014606
273.0156573
273.0196441
273.0189198
273.0170487
273.015245
273.0112525
273.0038321
272.9977787
272.997138
272.9972871
272.9974118
272.9974122
272.961457
270.0095487
281.0739974
273.1379519
273.0042915
273.0056602
273.0092992
273.0141961
273.0157796
273.0219743
273.022787
273.0172123
273.0105064
273.0091595
273.0075944
273.0016359
272.9962045
272.9935133
272.9949666
272.9981759
272.964906
269.9252719
281.1075262
273.1401721
273.0001927
272.9996999
273.0067548
273.0133534
273.0153404
273.0225187
273.0250259
273.0184155
273.0079223
273.0070604
273.0092467
273.0049503
272.9968483
272.9919058
272.9942365
272.9996002
272.9691842
269.9181501
280.8825124
273.1299796
272.9984161
272.9977823
273.0057662
273.0132925
273.0131566
273.0191133
273.0244179
273.0214462
273.0101973
273.0064559
273.0080146
273.0065244
272.9989387
272.9930158
272.9950478
273.0006995
272.9723545
269.7667087
280.8753243
273.1203291
272.999037
272.9992855
273.0060127
273.0136143
273.0097634
273.0134679
273.0211073
273.0232195
273.0152359
273.0076059
273.0058221
273.0060046
273.0012181
272.9960229
272.9969433
273.0010641
272.9736356
269.7901115
280.475151
273.1064148
273.0017512
273.0021586
273.0050116
273.0122899
273.0089707
273.0109563
273.0165637
273.0207212
273.0176839
273.0101384
273.0055081
273.0052311
273.0029125
272.9995253
272.9996509
273.0009319
272.9731665
269.639357
280.4417797
273.1038395
273.0035556
273.003175
273.0017279
273.0084512
273.0104162
273.0124842
273.0122486
273.0144991
273.0130845
273.0123901
273.0074223
273.0047763
273.0035196
273.0027347
273.0028462
273.0011866
272.9727844
269.7402665
279.8515043
273.0923135
273.0020598
273.0014719
272.9974058
273.0037876
273.0125781
273.0158
273.0090594
273.0079047
273.0121171
273.0144491
273.0102257
273.003754
273.0025237
273.0048728
273.0059088
273.0023968
272.9742666
269.6659317
279.7820923
273.0876301
272.9982991
272.9990061
272.9952574
273.001722
273.0124905
273.0165815
273.0076736
273.004837
273.0106845
273.0156024
273.0108715
273.0020038
273.0008997
273.0058851
273.0081899
273.0041396
272.9773264
269.9012026
278.9728875
273.0696588
272.9963906
272.9983487
272.9968413
273.0037467
273.0103222
273.0130724
273.0075263
273.0061599
273.0115119
273.015214
273.0096262
273.001351
273.000949
273.006293
273.0088488
273.0056658
272.9825382
269.9319859
278.9136507
273.0648889
272.9979581
272.9994062
273.0006994
273.0072507
273.0065338
273.0067404
273.007879
273.0101366
273.0127555
273.0121566
273.0069024
273.0028028
273.0034563
273.0066714
273.0079112
273.0064609
272.9863704
270.2896821
277.8569582
273.0495112
273.001296
273.0000678
273.0031492
273.0092073
273.0028478
273.0017066
273.0084872
273.0131363
273.0119619
273.0073962
273.0053123
273.0064177
273.0073679
273.0068917
273.0062848
273.0063753
272.9902526
270.3933025
277.8288565
273.048263
273.0027493
272.9998045
273.0027337
273.0070817
273.0002243
272.9998912
273.0092311
273.0134928
273.0083511
273.0027488
273.0050864
273.0100561
273.0102038
273.0064944
273.0045052
273.0055824
272.9914747
270.8449287
276.5616131
273.0323129
273.0013594
272.9991577
273.0001125
273.0027327
272.9997365
273.0015416
273.0093087
273.0110358
273.0039737
272.9997872
273.0053363
273.0115117
273.0106189
273.0052698
273.0033053
273.0046594
272.9934746
271.0006795
276.5987733
273.02817
272.9989135
272.9994533
272.9990127
272.9995258
273.0002057
273.0045365
273.0081373
273.0069846
273.0012781
272.9993616
273.004612
273.0100882
273.0084042
273.0035638
273.0024306
273.0036496
272.9945031
271.5066137
275.1420565
273.0129811
272.9976334
273.0009448
273.0005665
272.9988005
273.0010945
273.0069558
273.005666
273.0027585
273.0009005
273.0010179
273.0037796
273.00681
273.0056717
273.0021894
273.0018324
273.0027343
272.9971579
271.6954182
275.2951061
273.011606
272.998395
273.0047391
273.0034394
273.002936
273.001905
273.0097037
273.0028756
273.0003696
273.0017937
273.0032628
273.0031919
273.0038909
273.0035588
273.001601
273.0012185
273.0016444
272.9984968
272.2291758
273.6782314
273.1675989
273.0061194
273.2399914
273.011516
273.2510961
273.0158958
273.1983932
273.009214
273.1028967
273.0031799
273.0448396
272.9989539
273.0099233
272.9891899
272.994265
272.9873258
272.9968848
272.9975153
272.4166456
265.6687771
284.7751103
268.0310574
286.7035226
270.7801521
286.8226741
272.4598062
285.0554199
272.6077016
282.014979
271.5300558
278.5926722
270.0674733
275.6253009
269.0028316
273.8747828
268.9378094
273.7282478
269.9125809
274.7764014
284.4429104
273.2134234
273.022469
273.0244094
273.0159446
273.0233265
273.0265333
273.0286655
273.0223115
273.0226583
273.0238582
273.0201864
273.0115803
273.0022328
272.9972849
272.9985611
273.0045189
273.0078126
272.9560845
268.1527151
284.4941903
273.2130122
273.0082102
273.0090103
273.0107205
273.0167436
273.0159216
273.0211062
273.0206138
273.0174785
273.0123346
273.011001
273.0084753
272.9994758
272.9922493
272.9920484
272.9961485
272.9987325
272.9492992
268.1010506
284.4130872
273.2210887
273.0044141
273.0032993
273.0102567
273.014868
273.0124635
273.0211812
273.0257964
273.0196072
273.0085415
273.0079293
273.0091922
273.0025691
272.9948119
272.9920342
272.993176
272.9953836
272.9510976
267.9432191
284.5298136
273.2304836
273.0057766
273.0040005
273.0087296
273.0129266
273.0122232
273.0223235
273.0276509
273.021598
273.0090021
273.0058039
273.0060755
273.0030472
272.9975819
272.992569
272.9905251
272.9932665
272.9543996
267.8344729
284.2703201
273.2124378
273.0052873
273.0059726
273.0077958
273.0138354
273.0130992
273.0191074
273.0232779
273.0250561
273.0156804
273.0051875
272.9996649
273.0013062
273.0009236
272.993896
272.9892746
272.9931654
272.9607064
267.5861476
284.3240013
273.1899501
273.0013354
273.0060911
273.0079582
273.0168792
273.0143958
273.0115877
273.0144165
273.0267867
273.0240341
273.0066316
272.9942205
272.9997857
273.0036563
272.9957479
272.9900185
272.9948865
272.9665286
267.5035712
283.8125424
273.1667424
272.9997871
273.0053633
273.0075542
273.0169993
273.0147255
273.0083764
273.0086257
273.0237053
272.9627981
273.0097061
272.995466
273.0004072
273.0041554
272.9975588
272.9931446
272.9973821
272.9709807
267.2955412
283.8258258
273.1713248
273.001151
273.0033541
273.005991
273.0128061
273.0133911
273.0116728
273.0095847
273.0130459
272.6850714
273.010069
273.0028467
273.0030356
273.0024902
272.9988603
272.9979015
272.9997347
272.9712971
267.3524571
283.0504094
273.1655505
273.0022535
273.0000793
273.002005
273.0064212
273.0121416
273.0179904
273.0140142
273.0086818
272.9841182
273.0116001
273.0114571
273.0052977
272.9987193
272.9988852
273.0022751
273.0016911
272.9721595
267.3037807
282.9426753
273.1666384
273.0011825
272.9964863
272.9988772
273.0035845
273.0114323
273.0211649
273.017128
273.0046908
273.0009882
273.0125473
273.0165603
273.0045618
272.9941269
272.9974288
273.0041602
273.0034049
272.9733939
267.597926
281.805493
273.1327825
272.9999249
272.9957987
272.9989396
273.0071022
273.0116919
273.0182478
273.0150586
273.004589
273.0020547
273.0136594
273.0150934
273.002422
272.992515
272.9959322
273.0035202
273.0049395
272.979804
267.7589181
281.6496717
273.1126319
273.001054
272.9978901
273.0017034
273.0129042
273.0120668
273.0104928
273.0090338
273.0077744
273.0085544
273.011824
273.0083932
273.0006112
272.9951407
272.9966502
273.002107
273.0060369
272.9853404
268.292327
280.1305129
273.0774846
273.0054045
273.0014681
273.0035054
273.0146444
273.0107378
273.0031077
273.0035333
273.0120152
273.0141948
273.0065806
273.0005292
273.0008573
273.0016366
273.0000985
273.0014982
273.0060293
272.990971
268.5932168
279.9921522
273.0743053
273.0084998
273.0052731
273.0028668
273.0101125
273.0073909
273.000078
273.0023906
273.0155145
273.0163321
273.0007442
272.9940524
273.0024881
273.0085087
273.0047701
273.0014992
273.004371
272.9896357
269.2807108
278.2101281
273.0521022
273.0082437
273.0076504
273.0000736
273.0029477
273.0047996
273.0017249
273.0047466
273.0158552
273.0139073
272.9974401
272.992151
273.0037677
273.0115766
273.0076952
273.0020478
273.0014271
272.987985
269.6589061
278.1639848
273.0503631
273.0053597
273.0081848
273.0001669
272.9986353
273.0029327
273.0061585
273.0077422
273.0114612
273.0082046
272.9979961
272.9954062
273.0036864
273.0090848
273.0068915
273.0024856
272.9990391
272.9842794
270.4137372
276.1101455
273.0256086
273.001313
273.0066524
273.0043302
272.9987673
273.000827
273.0100638
273.0083566
273.0035321
273.0015335
273.0021102
273.0024571
273.0012542
273.0017484
273.0032326
273.0028594
272.9991911
272.9876488
270.8414091
276.2419903
273.020613
272.9980272
273.0065927
273.0091045
273.0061563
272.9981801
273.013191
273.0070438
272.9972099
272.9944431
273.0055889
273.0094788
273.0000109
272.9949559
272.99907
273.0034806
273.0014577
272.9921248
271.6277674
273.9843169
273.2333594
273.0083236
273.3406012
273.0333288
273.3656935
273.0334314
273.279237
273.0252832
273.1333128
272.9959699
273.0574721
273.0058247
273.0038585
272.9780647
272.9818509
272.9893354
272.9974651
272.9972798
272.0552746
265.1208938
287.0078681
268.5805249
289.9007416
272.7118758
290.2775067
275.1154648
287.9209934
274.7205583
283.758356
272.2910855
279.216031
269.5599675
275.3523975
267.4571956
273.2361096
266.9806412
273.4882356
268.3307806
275.332395
287.7605661
273.3170492
273.0235488
273.0138793
273.0176497
273.0256174
273.0293151
273.0354193
273.0290788
273.014679
273.0119823
273.0233002
273.0179257
272.9959021
272.9844933
272.9886503
273.0007208
273.0092714
272.9383719
265.3283514
287.8377214
273.3069404
273.0067593
273.0000985
273.0120651
273.0217166
273.0196166
273.0223065
273.0215422
273.0188015
273.0118046
273.012803
273.0097516
273.0006641
272.9908327
272.9881557
272.9926234
272.9974926
272.9289442
265.2347476
287.7882705
273.3070605
273.0066217
273.0021678
273.0124964
273.019149
273.0148455
273.0169608
273.0213559
273.0288359
273.0154145
273.0040484
273.0028185
273.0075379
273.0020986
272.9941552
272.9906283
272.9917601
272.9290932
264.932358
287.9979504
273.3208866
273.0168989
273.0129922
273.0120749
273.0121624
273.0111165
273.0168783
273.0219217
273.0312384
273.0173548
272.9953799
272.9942305
273.0047383
273.0054754
272.9978546
272.9892722
272.9873648
272.9325179
264.7234756
287.7776023
273.2993525
273.0209307
273.0204711
273.0091284
273.0083752
273.0154035
273.0191302
273.015601
273.0248471
273.0186197
272.9984082
272.9897905
272.9956107
273.0013156
272.9986074
272.9890676
272.9866291
272.9428379
264.2672547
287.8950837
273.2772026
273.0118384
273.0183738
273.0049298
273.0092478
273.0260697
273.0218426
273.0064252
273.0107252
272.8813707
273.0136106
272.995314
272.987637
272.9944697
272.9967631
272.9901222
272.9898461
272.9562237
264.1261446
287.3698577
273.2491248
273.001009
273.0102446
273.0052299
273.010943
273.0290364
273.0224869
273.0034802
272.9085678
268.9204037
272.9757023
273.0017962
272.986697
272.9908878
272.9959792
272.9926871
272.9940557
272.9694574
263.7551208
287.3794992
273.2590985
272.997018
273.002947
273.0103303
273.0117284
273.0193987
273.0207332
273.0036142
272.551098
262.165478
272.7836399
273.0010467
272.9914379
272.991592
272.9966629
272.9960321
272.9972299
272.9754113
263.8371357
286.4867896
273.2534123
272.9995772
272.9991374
273.0132304
273.0093428
273.0075267
273.0206907
273.0218447
272.9801101
271.2092466
272.9933886
273.0067639
272.9990737
272.9943433
272.9969627
272.9970696
272.9979802
272.9794258
263.7617933
286.2856395
273.2628573
273.005253
272.9972602
273.0108454
273.0072284
273.0026729
273.0215839
273.0325062
273.0127618
272.9417305
273.0004627
273.012546
273.0067889
272.9958615
272.9949739
272.9953332
272.9970386
272.9790265
264.1970988
284.8625423
273.2094795
273.0066055
272.9966133
273.0068835
273.0088176
273.0062625
273.0212068
273.0301129
273.0102763
272.9894997
273.0008333
273.013741
273.0084931
272.9958185
272.9920369
272.993263
272.9972898
272.9832238
264.496012
284.5519624
273.1765072
273.0046051
272.9977461
273.0035243
273.0113237
273.0149121
273.0192709
273.0155596
273.0053354
272.9990134
273.0051312
273.0068731
273.002651
272.9941695
272.9907151
272.9933105
272.9994703
272.9867461
265.2827576
282.5554195
273.114603
273.005986
273.0023065
273.0004416
273.0102269
273.023014
273.0162201
272.9988286
273.0008678
273.0108802
273.0081117
272.9981648
272.9956286
272.994985
272.9933298
272.995824
273.0016406
272.9918228
265.8791113
282.311411
273.1104263
273.0096753
273.0098984
272.999266
273.0058114
273.0224413
273.013153
272.9914494
273.0012108
273.0182889
273.0068805
272.991297
272.9917242
272.9984259
272.9990343
272.9991721
273.0017536
272.9887917
266.8985628
279.9314242
273.075633
273.0121641
273.0157615
273.000152
273.0003627
273.0158726
273.0115426
272.9966632
273.0062319
273.0184588
273.0043518
272.989331
272.9916025
273.001905
273.0044532
273.0019992
272.9995593
272.9852305
267.6643472
279.8343867
273.0793971
273.01228
273.0152689
273.0029637
272.9999336
273.0083957
273.0088389
273.0045313
273.0098135
273.0128269
273.0032297
272.9931165
272.9941691
273.0020756
273.005885
273.0030691
272.9968359
272.9782404
268.7589945
277.0873035
273.0395664
273.0080523
273.0082734
273.0074552
273.0058416
273.0019827
273.0045851
273.0082103
273.0090086
273.0050758
273.003291
273.0005744
272.9969898
272.9983034
273.0029733
273.0036943
272.9978667
272.9804348
269.5889168
277.2608859
273.0310912
272.9996905
273.0048005
273.0114391
273.0211316
272.9942397
273.0018326
273.0087881
273.0067288
272.9955594
273.0024857
273.0071231
272.9982257
272.9929706
272.9985725
273.0047879
273.0019483
272.9851714
270.7027846
274.2589027
273.3490406
273.0079989
273.512139
273.0396542
273.5558428
273.0409022
273.3616988
273.0358695
273.167727
272.9952167
273.0382805
272.9963199
272.9759323
272.9671691
272.9535731
272.9860827
272.982217
272.9906885
271.5306685
263.6513805
290.3985745
268.087712
294.3107394
273.4797348
294.6130654
276.6802777
290.8085092
276.1925714
284.7816816
273.0888364
278.364811
269.4493351
272.9756954
266.6446427
270.0049453
266.329698
270.5530293
268.6887956
273.29689
294.3433301
273.6084063
273.0237138
273.0141084
273.0230433
273.0218901
273.025473
273.0355865
273.0238583
273.0129653
273.0129257
273.0130875
272.9944926
272.9926873
273.0071113
272.9967428
272.9881516
272.9923112
272.9286204
260.4103129
294.5388713
273.5828022
273.0093757
273.000597
273.0139856
273.0254934
273.0235602
273.0165179
273.0168335
273.0299268
273.0210987
272.9962435
272.9815702
272.9927844
272.9981727
272.9904771
272.9832163
272.989053
272.9249381
260.1727261
294.5346101
273.5695459
273.0117103
273.0049199
273.0133046
273.0251986
273.0223978
273.011364
273.018645
273.0369454
273.0201282
272.9947614
272.9894391
272.9967034
272.9901879
272.990194
272.9870378
272.9911485
272.9346862
259.5940511
295.0225659
273.5960483
273.0265442
273.0175564
273.0133836
273.014044
273.012472
273.014072
273.0197531
273.0187732
272.9976226
273.0029247
273.0082273
272.9967403
272.9828199
272.9901857
272.9920214
272.9909609
272.9450524
258.9878344
294.8982607
273.5840142
273.0362153
273.027425
273.0063748
272.9996369
273.0160295
273.0307871
273.016871
272.9934975
272.809365
273.0145239
273.0206322
272.9898551
272.9735439
272.9915459
272.9970528
272.9896227
272.9617233
258.1209258
295.3014991
273.5869319
273.0314632
273.0254931
272.9968828
272.9919866
273.0320483
273.0538653
273.0136061
272.8630653
268.7420046
273.000658
273.0219373
272.9786834
272.9651818
272.9922987
272.9993735
272.9894551
272.9814779
257.5465211
294.7023288
273.5517901
273.0118845
273.0124376
273.0003567
272.9976835
273.0337935
273.0578463
272.9481898
269.9111056
230.753428
271.5353512
272.9954361
272.9721402
272.9627306
272.9930599
272.9988094
272.9909474
273.0082545
256.930501
294.8260928
273.5476241
272.9937008
273.0015796
273.0158074
273.0124019
273.0167669
273.0375631
272.7704351
265.4264212
227.1264294
268.160236
272.8586013
272.9710399
272.9678794
272.9947696
272.9974643
272.9932466
273.0280939
256.8234776
293.5879652
273.5025689
272.9940134
272.9999037
273.0287719
273.0220637
272.9938807
273.0139904
273.0048331
271.3389158
251.3459378
272.1205641
272.9768949
272.9800391
272.9788587
272.9970855
272.9952292
272.9934846
273.039645
256.8242436
293.3003303
273.5110948
273.0101036
273.0046982
273.0283851
273.0213083
272.9817686
272.9977278
273.0456438
273.0004621
270.7665319
272.965378
272.9925996
272.9948813
272.9912366
272.9975
272.9918064
272.9910697
273.037065
257.4294047
291.2042075
273.4231521
273.0184335
273.0059428
273.0192532
273.0155664
272.9876545
272.9992173
273.0363648
273.0357155
272.9062391
272.98024
272.9979884
273.007741
272.9993898
272.9961682
272.9875984
272.98787
273.0317444
258.1285729
290.6839111
273.3787282
273.0115726
273.0036554
273.0088357
273.0078308
273.0048823
273.0153334
273.0222555
273.0147207
272.9962686
272.9885373
273.0012996
273.009933
273.0003466
272.9934302
272.9853739
272.9863871
273.0200316
259.4393242
287.645427
273.2638267
273.0018325
273.0043095
273.0003791
273.0004997
273.0225142
273.0356717
273.0152609
272.9938562
272.9907942
272.9999208
273.0032846
273.001031
272.993578
272.9908163
272.9867193
272.9873367
273.012807
260.6928296
287.0933384
273.242917
273.0019482
273.0091102
273.0008792
272.9965867
273.0236246
273.0450608
273.0115494
272.9786347
272.9884324
273.0119046
273.0040594
272.9847334
272.983264
272.9916925
272.9920829
272.98975
272.9997296
262.4642091
283.5116837
273.1559929
273.0069916
273.0152525
273.0108212
272.9942972
273.0133071
273.0391099
273.0087928
272.9748876
272.9917468
273.0178688
273.0011927
272.9737308
272.9806676
272.9962999
272.9988939
272.9928354
272.993768
263.9674583
283.180081
273.1533
273.0159044
273.0139105
273.0136108
272.9982355
273.0062676
273.0165508
272.9994459
272.9866907
273.0027193
273.0153
272.9955841
272.9757746
272.9862929
273.0005012
273.003557
272.9961284
272.9857937
265.8108677
279.0820436
273.0731556
273.0191377
273.0061213
273.0067148
273.0130325
273.0076119
272.9896775
272.9912167
273.0107896
273.0130674
273.0027612
272.9929702
272.9908155
272.9944516
272.9981147
273.0019682
273.000101
272.9897078
267.3523631
279.2505283
273.0568828
273.0100309
273.0121565
273.0007683
273.0504948
273.0102037
272.9793517
272.9932032
273.0381723
273.0148973
272.9841229
272.9932237
273.0088826
272.9998846
272.990799
272.9959711
273.0037239
272.9935282
269.1135766
274.8390817
273.5444265
273.020336
273.8765514
273.0797562
273.9764911
273.1814161
273.5804336
273.1126965
273.3074727
273.0295955
273.02408
272.9612728
272.9687382
272.9681188
272.930214
272.9940218
272.9767944
273.0114467
270.6247411
262.5537743
295.1002681
269.0919707
301.1390771
277.5295805
301.9637319
282.8482056
296.3453442
280.9771491
287.662402
274.9479525
278.7376904
268.433967
271.5191776
263.2597818
267.6293128
261.7745887
269.3177184
265.1896136
274.0776043
301.227698
273.9596221
273.0304959
273.0237331
273.0276016
273.009804
273.0164971
273.0263041
273.0388031
273.0362481
272.9979167
272.9829558
272.9940241
273.0052756
273.0051383
272.9975314
272.9782171
272.9763297
272.9364058
254.6286382
301.7230282
273.9553738
273.0292912
273.0186419
273.0147282
273.0103812
273.0255825
273.0221197
273.0093415
273.0164376
273.0071396
272.9829367
272.970719
272.9796139
272.9900945
272.9895744
272.9803293
272.9783682
272.9404325
254.2095178
301.8717845
273.9445315
273.0292883
273.0177457
273.016378
273.0167471
273.0276359
273.023752
272.9947822
273.0033119