/*--------------------------------*- C++ -*----------------------------------*\
| =========                 |                                                 |
| \\      /  F ield         | OpenFOAM: The Open Source CFD Toolbox           |
|  \\    /   O peration     | Version:  5.x                                   |
|   \\  /    A nd           | Web:      www.OpenFOAM.org                      |
|    \\/     M anipulation  |                                                 |
\*---------------------------------------------------------------------------*/
FoamFile
{
    version     2.0;
    format      ascii;
    class       volVectorField;
    location    "8.8";
    object      U;
}
// * * * * * * * * * * * * * * * * * * * * * * * * * * * * * * * * * * * * * //

dimensions      [0 1 -1 0 0 0 0];

internalField   nonuniform List<vector> 
30538
(
(-0.06551529562 0.001978471451 -0.00299100605)
(-0.0472417884 0.002246394809 0.004230756003)
(-0.03615242648 0.0001763683354 0.002233542871)
(-0.01228568149 -0.002618898863 0.005996648896)
(-0.007438398139 0.003904059193 0.001245668944)
(0.02804992083 0.0009267106957 0.002201974396)
(0.02335901901 0.003005101747 0.00072492024)
(0.05217783866 0.001383892641 0.002550020641)
(0.04238073324 0.005586518914 0.00245494841)
(0.07157856638 0.0009495492897 0.0009608917293)
(0.05117647447 0.0007516867962 0.0009571034537)
(0.06525783699 -0.002004808965 0.0009551952433)
(0.03543101197 -0.0001896843081 0.0006066500217)
(0.03961711357 -0.006981874456 -0.004553196179)
(-0.009433771784 -0.007497796641 -0.00414831719)
(-0.01973211783 -0.006505163264 -0.002075850462)
(-0.04639492707 -0.0001245661833 0.0004690211544)
(-0.03898332066 -0.0009946022486 -0.003061490093)
(-0.05650154026 -0.002122053913 -0.00666972367)
(-0.07181296586 -0.003334206679 -0.005043037051)
(-0.06243188322 0.003421257538 -0.002467406643)
(-0.04845008835 0.005485064486 0.0049975224)
(-0.03965191191 -0.0008718630672 0.001711135867)
(-0.009610278497 -0.005749302683 0.005574129089)
(-0.00500256815 0.005559940437 0.00134500563)
(0.02742782416 0.001459038631 0.002659312332)
(0.02364367515 0.001769840858 0.0008609292902)
(0.05407375401 0.003064786588 0.002263261838)
(0.04205059573 0.006342233548 0.002121061105)
(0.06825034584 0.002781704591 0.001132970338)
(0.04904903625 -0.006512922937 0.000350474756)
(0.06458946154 -0.005629397123 0.0003249960696)
(0.03188494614 -0.009459825805 0.0005932541172)
(0.03443917802 -0.01796906395 -0.002442311454)
(-0.009026954101 -0.02433338045 -0.002083776395)
(-0.01461837759 -0.01666118257 -0.002039538038)
(-0.04238898749 -0.005432574233 -0.001007864108)
(-0.04037793708 -0.003386913953 -0.003551061801)
(-0.05823564561 -0.007773589632 -0.00487964992)
(-0.06801933651 -0.007167743804 -0.003479312488)
(-0.0588603595 0.006626649739 -0.001708153804)
(-0.05022018397 0.004908831353 0.006605379991)
(-0.0440845136 0.006227764497 0.001772720061)
(-0.007744822178 -0.003034459437 0.006102061551)
(-0.002410028969 0.01226163939 0.001583604238)
(0.02538624537 0.002316531482 0.00331703742)
(0.02446689666 0.007901908445 0.001041875453)
(0.05546702449 0.003121693586 0.00149416461)
(0.04211725641 0.01242285206 0.001409192984)
(0.06265292359 0.003080918866 0.0006003060601)
(0.04519492711 -0.003284270291 -0.0003131722999)
(0.06322822844 -0.009838214004 -0.001182563502)
(0.02667935143 -0.01072119365 0.0001127955784)
(0.02909932879 -0.02342526061 -0.0003180830593)
(-0.008443520527 -0.02591862712 0.0003630461435)
(-0.006497338993 -0.0227831959 -0.002449844981)
(-0.03687077223 -0.008587365959 -0.003080126423)
(-0.04065718874 -0.00899963119 -0.004139379356)
(-0.05918285799 -0.008027357007 -0.002356535681)
(-0.06159503304 -0.00976016655 -0.001185903701)
(-0.05389633478 0.007980612872 -0.0009504104305)
(-0.04880508572 0.002478167654 0.00762760536)
(-0.04492932586 0.01349771536 0.002839137125)
(-0.005483389235 0.00444316135 0.007135836545)
(-0.001082011536 0.01512852285 0.002358994918)
(0.02432138929 0.004324630016 0.004667022466)
(0.02416839741 0.00779163457 0.001892931983)
(0.05733891143 0.0002803002023 0.001563564727)
(0.04189957902 0.005751323199 0.0003536608327)
(0.05730543033 -0.0007335651172 0.0007743731905)
(0.03987862518 -0.009418844832 -0.001219638732)
(0.05935799183 -0.01545110068 -0.001975162808)
(0.02229545561 -0.01960321986 -0.001398456642)
(0.02369755174 -0.02554834016 0.000787368545)
(-0.008592140405 -0.02750349165 0.00164357162)
(-0.002373427326 -0.02704334044 -0.002715653656)
(-0.03266196867 -0.01826908935 -0.004706465627)
(-0.03998112746 -0.01595333833 -0.004375157796)
(-0.05862029784 -0.009905748637 -0.0004863464232)
(-0.05596904742 -0.007780830819 0.0007802088842)
(-0.05108718081 0.01063702604 -0.001867774546)
(-0.04643354304 0.0002304449446 0.00687072096)
(-0.0423475032 0.02458364218 0.00222514844)
(-0.006762755681 0.01297554527 0.007340483423)
(-0.002294887349 0.02354043157 0.002598724097)
(0.02016233748 0.007926642269 0.00526811553)
(0.021599092 0.01601435602 0.002679826744)
(0.0541399987 -0.002211811947 0.001029170725)
(0.04128992196 0.00318429046 -0.0006572386431)
(0.05206737652 -0.009697282506 -6.895361158e-06)
(0.03471413934 -0.008857818809 -0.001053605499)
(0.05605944725 -0.02158807121 -0.00266400208)
(0.01952184638 -0.02073395469 -0.002824611914)
(0.02350868194 -0.02755453401 3.83471995e-06)
(-0.00957339609 -0.02296484171 0.001714555313)
(9.834097679e-05 -0.03188290502 -0.002924675856)
(-0.02912681862 -0.02427187231 -0.004822438178)
(-0.03472598369 -0.02366804742 -0.004103849935)
(-0.05313188269 -0.00836670786 0.0004718339861)
(-0.04969234837 -0.005845719505 0.00130678129)
(-0.04595207363 0.01169995134 -0.003137643247)
(-0.03890420895 -0.0003992756705 0.003828797202)
(-0.03572739227 0.02979333765 0.001125173698)
(-0.006400899349 0.01659145935 0.006730357099)
(-0.004497944353 0.0254989625 0.00298607416)
(0.01895934512 0.009007331864 0.006083825401)
(0.01698156577 0.0196616543 0.003051642382)
(0.04845091392 -0.003396061014 0.001656875717)
(0.03648501327 -0.006432682863 -0.001584780018)
(0.04898088368 -0.02124119558 0.001390049771)
(0.03140659053 -0.01695994415 -0.00157586191)
(0.0509672377 -0.02714418184 -0.001633579987)
(0.01808937654 -0.02683203883 -0.004461622204)
(0.02205030437 -0.03266156738 -0.0011987885)
(-0.01166062917 -0.02743935983 0.0005375983342)
(-0.003267835347 -0.03668284947 -0.002194502688)
(-0.02688463131 -0.03036621527 -0.003602323451)
(-0.02870947635 -0.02755904574 -0.003240288751)
(-0.04574771724 -0.008841477599 -0.0001942788209)
(-0.04656607442 -0.003694268417 0.0004696884237)
(-0.04292176372 0.01438933508 -0.004029105891)
(-0.03354616066 -0.0001113952836 0.002767072023)
(-0.03011735743 0.03258528869 -0.000294141388)
(-0.01001543937 0.01516898913 0.005896402494)
(-0.00752026577 0.02867961782 0.002889384725)
(0.01601688463 0.008434842107 0.005408845089)
(0.01281041569 0.02720351079 0.002494644235)
(0.03589944862 -0.00170012355 0.001295073615)
(0.02857978517 -0.004096908545 -0.0002165447797)
(0.04479842848 -0.02808064587 0.001810015277)
(0.03048360054 -0.01662529111 -0.000891188404)
(0.04908387317 -0.03117164806 -0.001440117665)
(0.01564713638 -0.02681211133 -0.004172172501)
(0.02297903953 -0.04074156881 -0.002353422829)
(-0.0123685413 -0.03060211536 -0.0003202889095)
(-0.002016337232 -0.03978594298 -0.001628935116)
(-0.02259768895 -0.02779922693 -0.001849040861)
(-0.01947038343 -0.02867471346 -0.002738911493)
(-0.03603921781 -0.008111335489 -0.001540276463)
(-0.04141891033 -0.005864849873 -0.00124293541)
(-0.03573211807 0.0159485185 -0.002681816997)
(-0.02595296664 -0.001317167641 0.003962732016)
(-0.02458412998 0.02929766375 0.0003302329346)
(-0.00941231313 0.008585880516 0.00563898632)
(-0.009027914513 0.02719614039 0.003562755304)
(0.0178624856 0.003591874979 0.005408733748)
(0.00976594862 0.02614424876 0.001413508689)
(0.02655558539 -0.002516312963 0.002674736365)
(0.01770626191 -0.0003475897283 0.001026255483)
(0.0402894993 -0.0275350274 0.003702848986)
(0.02918726545 -0.01427880407 -0.004035640551)
(0.04372367409 -0.03399725197 -0.0005191905101)
(0.01138197673 -0.03083933537 -0.003880216784)
(0.01927222334 -0.04987824555 -0.001977853569)
(-0.01094509901 -0.03663053604 -0.001455835914)
(-0.001328675655 -0.03994998006 -0.001191035723)
(-0.01899335028 -0.02510703083 -0.0009007598213)
(-0.01470540626 -0.02822052703 -0.002188504757)
(-0.02939101718 -0.01125181456 -0.002892781229)
(-0.03724121575 -0.009087102156 -0.002447851947)
(-0.03248629914 0.01804597344 -0.00131567704)
(-0.02394028746 -0.003093883876 0.007016875573)
(-0.02278590364 0.02863175637 0.001078316166)
(-0.01178605982 0.004966589771 0.00581528547)
(-0.01078813396 0.03148072762 0.003433285106)
(0.0151890208 0.002621175293 0.00455954068)
(0.008433474455 0.02641081277 0.00104625506)
(0.01743873226 -0.003470478575 0.00303290156)
(0.01074116575 0.01129463716 0.003724186631)
(0.03510381935 -0.01834394145 0.002950107219)
(0.02588809878 -0.002602222337 -0.00330117956)
(0.03729658766 -0.03364050141 -0.0007860792554)
(0.004497952703 -0.03003055654 -0.001155769614)
(0.01880130937 -0.05468054869 -0.001023539682)
(-0.005341012841 -0.03510111897 -0.001916361051)
(0.006146003853 -0.03758442771 -0.002161816455)
(-0.01434262805 -0.01954520856 -0.0008440725906)
(-0.009614533557 -0.02897087308 -0.001995500958)
(-0.02229947285 -0.01401538993 -0.002989808716)
(-0.02753234216 -0.01403392981 -0.002842299335)
(-0.02513158096 0.02021379127 -1.47857389e-05)
(-0.01820264322 -0.005183242431 0.008152967891)
(-0.01854856342 0.02941513159 0.002663245089)
(-0.00771578132 0.002617644207 0.005969868007)
(-0.01043585555 0.03605758043 0.003776853024)
(0.01418756918 0.002597343752 0.005379159758)
(0.005379054484 0.02301932332 0.002135093139)
(0.01616355152 -0.009533050028 0.004980166985)
(0.007019576039 0.01747825666 0.004018512437)
(0.03062766652 -0.01278559812 0.002591933052)
(0.01832420979 0.00245816153 -0.005324658462)
(0.02428742894 -0.03601745227 0.0001592583293)
(-0.003402838598 -0.03017429965 0.001097324375)
(0.01560335771 -0.05348715471 0.0008236515756)
(0.001172352584 -0.03140791652 -0.002747953324)
(0.009687144279 -0.0357622872 -0.003398374859)
(-0.01293447833 -0.01909523893 -0.001607223747)
(-0.01080321604 -0.03108582946 -0.001075803474)
(-0.01870134469 -0.01794946989 -0.00151283859)
(-0.01785133791 -0.01684174772 -0.001660970629)
(-0.02185362993 0.02205947228 -0.0010432153)
(-0.01708588946 -0.004315820901 0.006991909921)
(-0.01694565118 0.03406537098 0.002359134751)
(-0.007406537336 0.00468521041 0.005510355082)
(-0.0105802751 0.0440008988 0.002846138482)
(0.005921229098 0.008310095256 0.005586551671)
(-0.0002453296837 0.0268433744 0.003993799836)
(0.01385274309 -0.009798250962 0.005278897927)
(0.00822090551 0.02193748836 0.003225951018)
(0.02465722872 -0.009446539936 0.0001559796908)
(0.009425928915 0.004608278783 -0.00425467151)
(0.01423911489 -0.03548346956 0.0002785562756)
(-0.007765340554 -0.02185129845 0.003003381634)
(0.01782286618 -0.04330121239 0.001293574074)
(0.007271149717 -0.02160762257 -0.002945749666)
(0.01479835241 -0.03434241005 -0.004964803644)
(-0.01101216796 -0.01869203014 -0.002198834012)
(-0.008778044318 -0.03213512953 -4.946026532e-05)
(-0.01214349483 -0.01622575823 0.001182509095)
(-0.003399819618 -0.01737773206 0.0001564754851)
(-0.01256091982 0.02370073921 -0.002096607063)
(-0.009370827358 -0.005433788958 0.003606988972)
(-0.01184001188 0.03619615282 0.002346781894)
(-0.001025166052 0.001043849911 0.005041229693)
(-0.007617192795 0.04546899034 0.002599524441)
(0.001994533392 0.007333847785 0.006555568119)
(-0.007565317425 0.03061205269 0.005967310367)
(0.01300932963 -0.01127943298 0.006311493326)
(0.007005768969 0.02021937681 0.00207499222)
(0.0185462622 -0.01659012994 0.0006900435123)
(-0.0001077159197 -0.000367358096 -0.002151664039)
(0.005576488728 -0.03840717108 0.001482453793)
(-0.008840780184 -0.01289891181 0.002785894222)
(0.01563474533 -0.03343528633 0.001435450125)
(0.007605608378 -0.01502028214 -0.002720931019)
(0.01167707807 -0.0356320024 -0.004683713905)
(-0.01134932353 -0.02067454092 -0.0021303936)
(-0.008991892694 -0.02993304491 0.001209527597)
(-0.008209954318 -0.01079972662 0.003392989179)
(0.005524120949 -0.01386891649 0.001891406416)
(-0.00897123268 0.02429483555 -0.003583488337)
(-0.0078982029 -0.006562934166 0.001304601365)
(-0.01198185754 0.03574573432 0.001032706785)
(-0.00122704092 -0.001706068216 0.004578916566)
(-0.005877132325 0.04232442105 0.001374418273)
(-0.004635377274 0.005875426032 0.005615312423)
(-0.01352460081 0.03644916499 0.006055575886)
(0.006831412217 -0.004363877457 0.005184727748)
(0.00423103853 0.02182116209 0.001364661232)
(0.01026744915 -0.01868604682 0.00102984376)
(-0.006015076807 -0.002530624746 0.0007652997369)
(0.005333609287 -0.03464363696 0.001137482625)
(-0.00418040608 -0.002373012401 0.0008347267234)
(0.01618466063 -0.02365915736 0.0001492550201)
(0.005783324328 -0.009364420006 -0.001514984766)
(0.01080551215 -0.03560978634 -0.003348893859)
(-0.007042110469 -0.01812482084 -0.001206254544)
(-0.001731441706 -0.02400527601 0.001186791743)
(-0.0007178485138 -0.000921448372 0.003753553789)
(0.01369725262 -0.009112331848 0.00212017958)
(-3.288787012e-05 0.02530457761 -0.002901169752)
(-0.0009674998998 -0.01294546683 0.0004969230478)
(-0.008038370191 0.03156732245 0.001302676073)
(0.003248987926 -0.009751257833 0.005012531017)
(-0.002006308778 0.03403462659 0.001784583718)
(-0.002216514413 -0.005187466602 0.005003122038)
(-0.01493599448 0.03714273309 0.005327755929)
(0.002985932024 -0.002353984553 0.004901340086)
(-0.00333460163 0.02344519548 0.0020750091)
(0.001519409821 -0.02258055869 0.003873616617)
(-0.01142008244 -0.0008604558469 0.003812586856)
(0.005633455697 -0.031571341 0.001744061972)
(-0.001054520047 0.002700388245 -0.0009073924458)
(0.01058613863 -0.0212984723 -9.421965817e-05)
(-0.0007923338582 -0.007831249656 0.000755622547)
(0.005549667424 -0.03506557206 -0.0001991372301)
(-0.00327479699 -0.01388617438 -3.778506392e-05)
(0.003264559628 -0.01728330538 0.0004510041082)
(0.002426924793 0.007336248585 0.00184523581)
(0.01226669463 -0.004000879278 0.001168167493)
(-0.000290332289 0.02459483209 -0.002308564074)
(-0.003099250044 -0.01698530576 0.0016179911)
(-0.009375749035 0.02776873513 0.0007507803491)
(0.0001677997823 -0.01142198802 0.005110232758)
(-0.00237581044 0.02835165095 0.001264483083)
(-0.002521997534 -0.01051694041 0.003023762764)
(-0.01168020169 0.03541439654 0.002749484041)
(-0.002537565372 0.002351809599 0.002587083691)
(-0.01024935809 0.02762163274 0.002202152691)
(-0.006722310717 -0.01614362784 0.004501795049)
(-0.01240595891 0.007873046264 0.004909256647)
(0.007791915608 -0.02129107581 0.001230165349)
(0.003114376842 0.007173021093 -0.002149833195)
(0.008631814391 -0.01722168096 -0.0006833899734)
(-0.003885716052 -0.00334511907 0.002670674147)
(0.006569024255 -0.02835819873 0.002477093846)
(0.005451599946 -0.006108289085 0.0009666607513)
(0.01341478147 -0.01143711674 -0.001280385356)
(0.008813991877 0.01279293868 -0.001346651649)
(0.01094543671 -0.001666793572 -0.0008894818603)
(0.00537534037 0.02503052131 -0.0007971354156)
(0.001558729861 -0.02337077704 0.002637738871)
(-0.003795960425 0.02622277364 0.001631797349)
(0.003300141341 -0.01646009666 0.005305604615)
(-0.001101654222 0.02530182667 0.002390645409)
(0.002696567618 -0.01885087493 0.002622859717)
(-0.006000909522 0.02992788813 0.001671554232)
(-0.002219776222 -0.004004341851 0.002407680408)
(-0.01659923352 0.02882147394 0.00283498515)
(-0.01227013748 -0.01370107839 0.005078041609)
(-0.01512351745 0.01754716326 0.005225772766)
(0.005071269515 -0.01444840964 0.002209583931)
(0.00186452731 0.01132662134 -0.001094321194)
(0.003062386868 -0.01417372193 5.381450781e-05)
(-0.008592287139 0.004103933932 0.003971148533)
(0.003588697858 -0.01913715476 0.004603705114)
(0.008641187705 0.001958855224 0.001939783749)
(0.01674558405 -0.008506705821 -0.00199311485)
(0.009491504342 0.01329273159 -0.00371124099)
(0.004003018032 -0.002492249485 -0.002257303891)
(0.0009344668033 0.02339977763 -0.0008601513851)
(-0.001992097042 -0.02376198001 0.00291740439)
(-0.004192778093 0.02593318973 0.0007074682423)
(-0.0008101986986 -0.01603589149 0.004031155129)
(-0.003846016653 0.02509140334 0.001824471328)
(0.0007013556165 -0.01766957435 0.001000629224)
(-0.001317885438 0.02550478589 -0.0002328073021)
(-0.003019316135 -0.006802081564 0.0006791057488)
(-0.01726270185 0.027619042 0.001331426016)
(-0.01453520346 -0.006543363277 0.002726906635)
(-0.01300540306 0.02656366432 0.00325067873)
(0.003366554807 -0.00298242866 0.001965845338)
(0.00334241874 0.01919735204 8.232134366e-05)
(0.003478990808 -0.005420775843 -0.0002952287137)
(-0.007343474019 0.01525558486 0.003146424952)
(0.005043226916 -0.006055602817 0.004577024722)
(0.01284040459 0.01119152279 0.002495298075)
(0.02150381243 -0.005609975848 -0.001792525276)
(0.01322273676 0.01162811296 -0.00426388983)
(0.002857088261 -0.004951054414 -0.002638313918)
(0.005271763042 0.02302550135 -0.0005450225792)
(0.003480435883 -0.02629690838 0.002268339866)
(0.001938147305 0.02500409645 0.0007634472726)
(0.002453031735 -0.02152527281 0.002992572161)
(-0.002043367709 0.02423240389 0.002549939318)
(0.002923838872 -0.0214351524 0.001217040436)
(0.00151874194 0.022047416 6.698654439e-05)
(-0.0005108884226 -0.01675927109 0.00110616856)
(-0.01657521858 0.02336730742 0.001320918663)
(-0.01290808602 -0.007560177511 0.00179139287)
(-0.0126849433 0.03178336665 0.001950871968)
(-0.0001559126871 0.002389468043 0.002458963203)
(0.0001594944525 0.02775556507 0.00170661286)
(0.000203817355 0.001104463935 0.0001564134074)
(-0.009041029984 0.02526475342 0.00217440295)
(0.0007125802299 0.004957311085 0.003957278794)
(0.008836699394 0.02021980588 0.002944065549)
(0.01709751338 -0.002292116351 -0.00032244755)
(0.01015787656 0.009653910327 -0.002908812842)
(-0.001187850484 -0.007476765419 -0.001838397634)
(-0.001285352273 0.02116934574 -0.001003921975)
(-0.0006278173071 -0.02405367241 0.00105087687)
(-0.0007456362128 0.02112371746 -0.0005513165359)
(-0.001680941929 -0.02301981356 0.0005055458539)
(-0.003705650021 0.02212059118 0.0009861813531)
(-0.0009027311825 -0.02136728104 -0.0005523583694)
(0.001971218574 0.01980550516 -0.001045855726)
(-0.001839647319 -0.0213562329 -0.000525190053)
(-0.01071919985 0.02013554865 -5.211144935e-05)
(-0.008449756631 -0.003651260122 -0.0004547253419)
(-0.005968643064 0.03422492505 -0.0001452116727)
(0.0004775343558 0.007567885118 0.001361570504)
(0.002410273592 0.0342450477 0.001224026775)
(0.001608097262 0.005891537764 -0.0003883832959)
(-0.004634611492 0.0320610912 0.000411352959)
(0.001436507148 0.0141131189 0.002085838763)
(0.007757662531 0.02851798103 0.002265056022)
(0.01412042109 0.002235986247 0.0006492936294)
(0.009789792799 0.009347305078 -0.001208385938)
(0.0009712112335 -0.009644451629 -0.0009288159609)
(0.003374742984 0.02346559895 -0.0002059497806)
(0.004013557311 -0.02619814048 0.0005369237)
(0.0029399714 0.01943894257 3.522252658e-05)
(0.003587465481 -0.02838208233 0.001187828562)
(-0.0007121117897 0.01774473324 0.0007371457873)
(0.001438045029 -0.02133136262 0.001276126684)
(0.001338703335 0.0170663607 2.948897993e-05)
(-0.0003686377582 -0.02671832461 0.001115166275)
(-0.004327245132 0.0193595134 0.0005748160998)
(-0.0031962013 -0.00561442237 -2.20463637e-05)
(-0.004832860146 0.03500999404 0.0001534888969)
(-0.0001122136917 0.009615886715 0.00129178631)
(-0.0009380619861 0.03455641344 0.0008779294243)
(-0.001225381561 0.007647008765 -7.159812016e-05)
(-0.003101522073 0.0342235062 0.0001469745722)
(-0.001890056227 0.01883840777 0.0008486021557)
(0.0003472210028 0.03479026459 0.001121089754)
(0.003383230546 0.006721541995 0.0006505226534)
(0.001646382406 0.009792166019 0.0001076054632)
(-0.001450024014 -0.01020520421 -0.0001742425299)
(-0.06321522061 0.002944370748 -0.001246832668)
(-0.04070611389 0.003667970398 0.009951524919)
(-0.03382585481 -0.0008711886756 0.009239547154)
(-0.01354932306 -0.003482041698 0.01171441105)
(-0.01251274654 0.004065378385 0.009375771412)
(0.02739298657 0.001776004814 0.01077645779)
(0.02375575125 0.003252311007 0.006400682898)
(0.05452561126 0.0008325704125 0.01343449859)
(0.04027240917 0.004941269078 0.007640951647)
(0.06976197388 0.001256419841 0.007604534413)
(0.05112296959 -0.0004601042634 -0.0007596284321)
(0.06495917652 -0.003219279963 0.006554181114)
(0.02800296129 -0.0002635243881 0.0005731202711)
(0.0333144696 -0.003033797645 -0.007574537019)
(-0.006110618181 -0.003591190612 -0.01000728089)
(-0.01361817805 -0.00648688035 -0.005248150856)
(-0.04768933958 -0.002967271355 0.002181932688)
(-0.04877706895 -0.001971438828 -0.005730565962)
(-0.05910077131 0.001234361752 -0.008977544016)
(-0.05638514851 -0.0004122446322 -0.01091451047)
(-0.05842872626 0.005859245491 -0.001391033089)
(-0.04335265059 0.009946140376 0.009601379464)
(-0.03886193394 -0.001819336748 0.008154856064)
(-0.01008215943 -0.005619350168 0.01209165692)
(-0.008810141375 0.006142691043 0.009358719388)
(0.02682565089 0.003520739088 0.01174520965)
(0.02307270507 0.002339065327 0.00674157719)
(0.05576383815 0.001029123844 0.01188782171)
(0.04054547419 0.004324958185 0.00678985093)
(0.06599531754 0.002032477345 0.009044854686)
(0.04792215892 -0.008997002149 0.0004107762935)
(0.06507475292 -0.009728817877 0.004679936889)
(0.02809921772 -0.01048412362 0.0004190901122)
(0.03092544634 -0.01000943393 -0.002247414757)
(-0.008543538877 -0.01580464287 -0.003642610176)
(-0.01321420291 -0.01746775362 -0.004310310673)
(-0.04449289463 -0.0122232163 -0.0009573642876)
(-0.04579658077 -0.005523458218 -0.007610606589)
(-0.05795639125 0.000345857195 -0.006719458065)
(-0.05706089372 0.0001134776042 -0.008372852706)
(-0.05163937233 0.009586563316 -0.0007697928646)
(-0.04606519502 0.009916793138 0.01058589792)
(-0.04474023247 0.008305938941 0.009719295211)
(-0.00798195495 -1.219006195e-05 0.0154754473)
(-0.006027724174 0.01414911561 0.009809262849)
(0.02471245333 0.006128049094 0.01355528849)
(0.02199618748 0.009846996341 0.006182545412)
(0.0559640384 0.001770386036 0.01026394191)
(0.04091990593 0.009058349696 0.002454087264)
(0.0604516285 0.002347923458 0.01010090145)
(0.04274096396 -0.006274401761 -0.003089968887)
(0.06393205576 -0.01424139269 0.001894559335)
(0.02774925496 -0.01451487331 -0.003381475075)
(0.02951447366 -0.01732932559 0.003149194244)
(-0.01140042479 -0.01885441151 0.001942585308)
(-0.01113660586 -0.02410320812 -0.003449083786)
(-0.03921572842 -0.01562662259 -0.005172690477)
(-0.03990571783 -0.01059211871 -0.009700127804)
(-0.05500438756 0.0003169094367 -0.003716713506)
(-0.05704776679 -0.001673095711 -0.004524196506)
(-0.04425188806 0.007737695297 -0.0001370655483)
(-0.04416470219 0.002995179764 0.0126705864)
(-0.04562412196 0.01428249158 0.01313214654)
(-0.006081890476 0.00689210652 0.02026084157)
(-0.004322889677 0.0170127441 0.01156318543)
(0.02375279119 0.008048077821 0.01529423976)
(0.01998100822 0.01088173555 0.007890355741)
(0.05529221585 -0.0006067159976 0.008568392616)
(0.04084450609 0.001844056528 0.0006275500277)
(0.0553150095 -0.00192531615 0.007913549819)
(0.03613343552 -0.01081707968 -0.003237852442)
(0.05929099933 -0.01825323233 -0.002037356337)
(0.02590464085 -0.02512611895 -0.005655346298)
(0.02783712657 -0.02493782306 0.003952350065)
(-0.01333205233 -0.02494245115 0.005199661239)
(-0.01094389895 -0.02789005116 -0.003417927681)
(-0.03494073153 -0.02156352418 -0.007674006355)
(-0.03452430445 -0.01588187818 -0.01092692728)
(-0.05148242853 -0.004411926427 -0.0009062679662)
(-0.05656331938 -0.00300863915 -0.001493166416)
(-0.04371175394 0.006497312154 -0.001377159159)
(-0.04140374219 -0.007073437663 0.01110514031)
(-0.04176696653 0.02125341612 0.0128792203)
(-0.006197311777 0.01224934681 0.02176347686)
(-0.005029374412 0.02467739782 0.01126471095)
(0.02034118282 0.01061519859 0.01693201193)
(0.01589008578 0.01818633714 0.008574980369)
(0.04968339397 -0.002043893125 0.009797824836)
(0.03988884703 -0.0005095963756 -0.006594673281)
(0.05166548384 -0.008573130189 0.006581104618)
(0.03111329553 -0.009540522421 -0.01161156573)
(0.05388538982 -0.02097174859 -0.001322773248)
(0.02299628739 -0.02653027646 -0.01190520609)
(0.0296445679 -0.0313383503 0.001674838583)
(-0.01348539547 -0.02508242383 0.002381645953)
(-0.008744240381 -0.03089318956 -0.003244793818)
(-0.03071444077 -0.02214317438 -0.008095746431)
(-0.02776938898 -0.02152435383 -0.01043578836)
(-0.04567819906 -0.007667729196 0.0002723080102)
(-0.05232633024 -0.006413517348 -0.0004795263648)
(-0.04451235836 0.007613805907 -0.004317931094)
(-0.03369133181 -0.008290038643 0.006581487327)
(-0.03184060625 0.02495249127 0.009455652479)
(-0.003868058634 0.01384789331 0.0196587059)
(-0.005273136877 0.02600574667 0.01127556439)
(0.01911268687 0.009232148985 0.01717913287)
(0.01103995182 0.01929620942 0.0117874932)
(0.04220945149 -0.002925586066 0.01030408585)
(0.03612034886 -0.005602806193 -0.005456552717)
(0.04910376648 -0.01781681158 0.00347512016)
(0.02728718267 -0.01664134424 -0.009170078942)
(0.04731577582 -0.02488416304 -2.728806391e-05)
(0.01855944938 -0.02941234245 -0.01092796283)
(0.02882679459 -0.03718854333 -0.003481316311)
(-0.01299781085 -0.03133273501 -0.0004160145972)
(-0.008889921743 -0.03430305639 -0.002977104602)
(-0.02829634175 -0.02473390119 -0.004995224321)
(-0.02427220415 -0.02499785884 -0.008557816274)
(-0.04058164953 -0.012648055 -1.719930107e-05)
(-0.04715770171 -0.00856671114 -0.001678658094)
(-0.04411619997 0.01534382807 -0.004909211367)
(-0.02906514182 0.0001603778472 0.00491324472)
(-0.02594371272 0.03103919175 0.00522258607)
(-0.005700605263 0.01316554979 0.01620713031)
(-0.008087311089 0.02974787103 0.01072531104)
(0.01555246219 0.007117275912 0.0173735436)
(0.007285487572 0.02407437343 0.009003036118)
(0.03224192635 0.00019015755 0.01290622215)
(0.02925714124 0.0008893945754 -0.007435339414)
(0.04403408276 -0.02370532974 0.007654500597)
(0.02603785173 -0.02125243874 -0.02107085597)
(0.04485790891 -0.02908663418 0.003291614686)
(0.01428829473 -0.02568398006 -0.01538315179)
(0.02822680051 -0.04227586339 -0.004809816899)
(-0.01142762887 -0.03439075165 -0.004835849671)
(-0.004116576037 -0.03792252304 -0.001914374215)
(-0.02411499793 -0.02266983329 -0.002765282508)
(-0.01920278281 -0.02668159953 -0.00671862613)
(-0.0338741168 -0.01322484846 -0.002048680375)
(-0.0378565148 -0.01142615054 -0.003835846077)
(-0.03347789772 0.02122012254 -0.002724328642)
(-0.02234669049 0.006766670396 0.008306566877)
(-0.02237778975 0.031902481 0.004561665114)
(-0.005041740508 0.008502177022 0.01432312203)
(-0.009296479741 0.02819424013 0.01355377212)
(0.01505482153 0.001930380375 0.01693308711)
(0.006079096687 0.02332811477 0.007500446693)
(0.0260170801 0.0007208410413 0.01164594745)
(0.01909450437 0.007173964837 0.001520370006)
(0.03365404055 -0.02538740743 0.00746945842)
(0.02342633496 -0.01876467234 -0.01830866391)
(0.0440870337 -0.03280038544 0.0001647442002)
(0.009294323607 -0.02507421187 -0.01075372339)
(0.02259134692 -0.04738509198 -0.004924399135)
(-0.009876129751 -0.03963906793 -0.004295972231)
(-0.0006406166877 -0.04095988685 -0.002484030196)
(-0.02033726162 -0.02316038914 -0.0009995091512)
(-0.01755781427 -0.02678965231 -0.005800412215)
(-0.02964220045 -0.01395666277 -0.00335216819)
(-0.03021215073 -0.01210676857 -0.005762302191)
(-0.02423706947 0.02322110874 0.001379559743)
(-0.02110402426 0.004834610571 0.01516809299)
(-0.02444003516 0.03307022369 0.006509464481)
(-0.008594181964 0.005611712147 0.01457920988)
(-0.01245537198 0.03185632668 0.01445709495)
(0.01205867298 0.002523451011 0.01770444678)
(0.006347804518 0.02771051375 0.003332200404)
(0.02105224824 0.0008811027837 0.01396549679)
(0.0106338415 0.01700781781 0.005019923554)
(0.02581100488 -0.02051789829 0.01410654814)
(0.02077717274 -0.004951952422 -0.02247633877)
(0.04034219267 -0.03242361536 0.001211373982)
(0.004072801406 -0.02056066473 -0.009649372924)
(0.01785089605 -0.04938519068 0.0006401575074)
(-0.006832471662 -0.03751660364 -0.005056624608)
(0.007528007503 -0.04179923081 -0.003886567947)
(-0.01408713678 -0.0208298684 -0.002926359426)
(-0.01263976505 -0.02687436787 -0.005257761493)
(-0.02335415858 -0.01132104624 -0.003503697216)
(-0.01988202968 -0.01249824411 -0.005634068992)
(-0.01361600747 0.0208324947 0.002989073226)
(-0.01492140932 -0.005288726904 0.01929437921)
(-0.02151494273 0.03189161571 0.009811620084)
(-0.006200619044 0.002026889027 0.01536023179)
(-0.01119551295 0.03493237746 0.01545655174)
(0.01202568585 0.004476445132 0.01806520291)
(0.004817065378 0.028566945 0.006695897901)
(0.01870324201 -0.005282992247 0.01411676343)
(0.003805324669 0.01652662216 0.0122736027)
(0.01817932457 -0.01816490883 0.01018614661)
(0.01499974778 0.0007189136278 -0.01487576255)
(0.03304436262 -0.0340734242 -0.001785901703)
(-0.002586012876 -0.02229163081 0.0004147119581)
(0.01051579052 -0.0491782547 0.004926195894)
(-0.004459100827 -0.03333635533 -0.002653754789)
(0.01115943432 -0.04115622294 -0.007578780338)
(-0.009794209767 -0.02165768469 -0.004642635028)
(-0.01077201226 -0.02744410288 -0.004422210324)
(-0.01936857381 -0.009975634774 -0.0004954115069)
(-0.01378756133 -0.01112101032 -0.003754138596)
(-0.01334828252 0.01818318468 0.001360202156)
(-0.01282128835 -0.01305608295 0.01608453652)
(-0.01896309132 0.03351118998 0.01039304816)
(-0.006740339837 0.002932064799 0.01432512875)
(-0.01048243337 0.04177267576 0.01212528183)
(0.007476790737 0.01045292542 0.01837295593)
(-0.0006696988628 0.03409531005 0.009582397061)
(0.01284014924 -0.007290787495 0.01765243082)
(0.001330653018 0.01823553563 0.008058817493)
(0.01470167532 -0.01310395151 0.008423259447)
(0.009548748709 0.01073479125 -0.01647195584)
(0.02407923092 -0.03304463381 0.001279157394)
(-0.006473449936 -0.0186379807 0.002430003632)
(0.009913672296 -0.04225304593 0.00840339397)
(-0.001117164173 -0.02155866411 -0.004067553039)
(0.01576239638 -0.03687214014 -0.01002709007)
(-0.004408085448 -0.01970130561 -0.006884521987)
(-0.004301916518 -0.02782372172 -0.002115882701)