/*--------------------------------*- C++ -*----------------------------------*\
| =========                 |                                                 |
| \\      /  F ield         | OpenFOAM: The Open Source CFD Toolbox           |
|  \\    /   O peration     | Version:  5.x                                   |
|   \\  /    A nd           | Web:      www.OpenFOAM.org                      |
|    \\/     M anipulation  |                                                 |
\*---------------------------------------------------------------------------*/
FoamFile
{
    version     2.0;
    format      ascii;
    class       volVectorField;
    location    "7.2";
    object      U;
}
// * * * * * * * * * * * * * * * * * * * * * * * * * * * * * * * * * * * * * //

dimensions      [0 1 -1 0 0 0 0];

internalField   nonuniform List<vector> 
30538
(
(0.06965452394 0.001566543162 -0.0007767536306)
(0.08051304209 -0.002776894453 0.005074373928)
(0.06558381447 0.0009547194998 -0.006490154605)
(0.08159556045 -0.001073969477 -0.003063536113)
(0.05615175841 -0.0006789381394 -0.007514438427)
(0.05581461781 -0.001877656964 -0.00548008872)
(0.02108707632 -9.285648352e-05 -0.01185669666)
(0.01434337507 -0.00229523276 -0.01099531908)
(-0.02696610662 0.002623442955 -0.008381152706)
(-0.01680651787 0.004218326532 -0.004891487592)
(-0.0317185772 -0.0003185751369 -0.009487816734)
(-0.0236880189 -0.009015656443 -0.01162303052)
(-0.05670112189 -0.01070151768 -0.01215753564)
(-0.05458917557 -0.007122147999 -0.006830583039)
(-0.06752633636 0.0003843378028 -0.005657130934)
(-0.03797285935 0.001851522688 -0.002857458469)
(-0.03066482848 -0.0005571367333 -0.005738499516)
(-0.01694389598 -0.006417377017 -0.004598044127)
(-0.03135331021 -0.008502637375 -0.007951550227)
(-0.05020611495 -0.006257833245 -0.003189183429)
(0.06885001301 0.003668814171 -0.002372296791)
(0.08012270132 -0.006104037475 0.00420917201)
(0.06669783831 0.0025849511 -0.003918364578)
(0.08048570759 -0.0007727276756 -0.0008618976022)
(0.05552816656 -0.0007639208115 -0.007472754759)
(0.05622008543 -0.002578783487 -0.006072599537)
(0.02075607938 -0.001258333772 -0.01092761761)
(0.0163129105 -0.006791313496 -0.01042740212)
(-0.02238476986 0.001651234659 -0.009603250918)
(-0.01881413921 0.005270723319 -0.006931723472)
(-0.04109825755 -0.004682246859 -0.008977035896)
(-0.03101046358 -0.0216415598 -0.009234651916)
(-0.05539331826 -0.02674750929 -0.01047922745)
(-0.04676719267 -0.01997589607 -0.007608828815)
(-0.06112103328 -0.005987770714 -0.007416806402)
(-0.03872296629 -0.00137988527 -0.004212218829)
(-0.03639989182 -0.004522776455 -0.005520761078)
(-0.02255348808 -0.01452253983 -0.003030971666)
(-0.03130874777 -0.01814393437 -0.00557465013)
(-0.03983176917 -0.01365382599 -0.001661553337)
(0.06813449811 0.005753049068 -0.005045550236)
(0.07977415402 -0.005345298697 0.002529050422)
(0.06929280436 0.00654887735 -0.003249848826)
(0.07924601833 0.0004409875747 0.0001779044244)
(0.05482403432 0.005696195518 -0.008395664045)
(0.05545636016 0.0007317339461 -0.00652891326)
(0.01808899095 0.001724657647 -0.01028389661)
(0.01643898298 -0.01007184303 -0.009175813886)
(-0.01851891786 -0.004265603976 -0.01189725848)
(-0.02115145931 -0.006206062183 -0.009518526246)
(-0.05073327726 -0.011363921 -0.01018261742)
(-0.03919234935 -0.02541295739 -0.006755068703)
(-0.05557588248 -0.02884949782 -0.009556778136)
(-0.03996305082 -0.02917991394 -0.008043601535)
(-0.05433723199 -0.01882384617 -0.009737536308)
(-0.03702970266 -0.0157396585 -0.005794167989)
(-0.03981706272 -0.01132445937 -0.006134506232)
(-0.02659334871 -0.01609855524 -0.001882697423)
(-0.03075031271 -0.01395256839 -0.003364345819)
(-0.02806313056 -0.01158712159 0.0003125170375)
(0.06941174579 0.005909964658 -0.006458833464)
(0.08056352973 -0.002592873759 0.000651874252)
(0.07099220666 0.006602697302 -0.003636642059)
(0.07979543268 -0.003338904041 -0.0003872291769)
(0.05582480177 0.006485877268 -0.008793548681)
(0.05337225908 0.0002256844636 -0.006673758107)
(0.01309556935 0.003260503324 -0.007963680252)
(0.0121286118 -0.01039541813 -0.006773297103)
(-0.01975129442 -0.01229095917 -0.01078767555)
(-0.02370302916 -0.02077714458 -0.01013369978)
(-0.0546779235 -0.01917832331 -0.009659299803)
(-0.04332833093 -0.02347765195 -0.005644048011)
(-0.05806011888 -0.02398174646 -0.007880896092)
(-0.03970652658 -0.03261142954 -0.00764303567)
(-0.05166766098 -0.03151846558 -0.009405486077)
(-0.0334126959 -0.0321179068 -0.006129583071)
(-0.03666619603 -0.01997412028 -0.006224478409)
(-0.02440368781 -0.01525521637 -0.001930951687)
(-0.02796771081 -0.004312553461 -0.002541560154)
(-0.02227001064 -0.004222251581 0.001071423854)
(0.0707660385 0.00656594013 -0.006006875061)
(0.08011509966 -0.001301140142 0.001499272292)
(0.06901971807 0.004940445795 -0.005191153803)
(0.07903324735 -0.0100435077 -0.0009019886863)
(0.05746413861 0.003547109621 -0.009224280543)
(0.0531209341 -0.005571071512 -0.006848959034)
(0.01056930687 0.005132100654 -0.00854549873)
(0.005533193143 -0.008887745975 -0.005400472239)
(-0.02592857424 -0.01371824103 -0.01070501175)
(-0.02591600073 -0.02989929185 -0.009707989689)
(-0.0527067702 -0.0235306389 -0.01251960471)
(-0.04257555287 -0.02286111869 -0.006709104555)
(-0.0620438079 -0.01813974458 -0.009888037206)
(-0.04529393544 -0.03208477329 -0.007141143685)
(-0.05406113077 -0.03469105736 -0.008981636879)
(-0.02879835992 -0.04037582781 -0.004981300392)
(-0.02796914956 -0.02463140159 -0.006701462118)
(-0.01549206867 -0.01597954259 -0.002977375573)
(-0.02267535531 0.001875098604 -0.004139602778)
(-0.02259032655 -7.5695478e-05 0.0007310435197)
(0.07335007924 0.00715996823 -0.002905047667)
(0.07938037452 -0.004001774 0.003721130967)
(0.06499756512 0.002111683968 -0.004467116101)
(0.07868503652 -0.01507574166 -0.0003640856939)
(0.05904338938 -0.0009315486007 -0.007175785873)
(0.0544303525 -0.01375342161 -0.006332629625)
(0.01072115038 0.00233169565 -0.008006248764)
(-0.001075421205 -0.009864931296 -0.004295464943)
(-0.03466827823 -0.01063714012 -0.007267910507)
(-0.0305000863 -0.03039803559 -0.007676182926)
(-0.04977779088 -0.02461165443 -0.01166359561)
(-0.03954371793 -0.02816120018 -0.008385487725)
(-0.06456746748 -0.02008132991 -0.01031755589)
(-0.05143259417 -0.03155949545 -0.007058471505)
(-0.05753153935 -0.02876876673 -0.00639533461)
(-0.02626227295 -0.03622369743 -0.00280790508)
(-0.01941664389 -0.02388233018 -0.005470198648)
(-0.005631727165 -0.02001112687 -0.00414450511)
(-0.01643435986 -0.002248482428 -0.005822616285)
(-0.02415576254 -0.002881511379 -0.0004695645094)
(0.07310183442 0.008794609214 -0.001813157636)
(0.07655628616 -0.01056784978 0.004872299259)
(0.06141503381 0.004089673949 -0.005245162738)
(0.07672923492 -0.01548559767 0.0002345373538)
(0.05843424396 -0.0009023586047 -0.007173504411)
(0.05539211036 -0.02063071044 -0.006011505627)
(0.01329090607 -0.001715999194 -0.01038232309)
(-0.00351977937 -0.01488196336 -0.005463377264)
(-0.04048793451 -0.005109610839 -0.008613791888)
(-0.03566330383 -0.02596743984 -0.006606968202)
(-0.05116488718 -0.02246159195 -0.01402520665)
(-0.03939580599 -0.03677265605 -0.009005487555)
(-0.06443373917 -0.02684255193 -0.01340022624)
(-0.0514983578 -0.03290650894 -0.007199176736)
(-0.05732767119 -0.01762830311 -0.006622840945)
(-0.02536653495 -0.02432765299 -0.00128290991)
(-0.01642647814 -0.01621527189 -0.005020540709)
(-0.0001650826162 -0.02401879739 -0.004305838286)
(-0.01035197923 -0.01188135659 -0.007026766712)
(-0.01952043806 -0.01034105527 -0.001051431591)
(0.07210369338 0.01087830726 -0.002140729678)
(0.07603771438 -0.01657730215 0.003393287573)
(0.06182654695 0.007113322272 -0.004875424154)
(0.07500873513 -0.01641275975 0.0003025146208)
(0.05551871363 -0.002205117024 -0.005939364593)
(0.05381589251 -0.02799623345 -0.004739744459)
(0.01475602134 -0.01005412514 -0.008995604309)
(-0.003364032368 -0.02589320365 -0.006354770808)
(-0.0425784643 -0.005466425781 -0.007626683058)
(-0.04264035125 -0.02466468692 -0.005287194831)
(-0.05740683251 -0.01894645008 -0.010677402)
(-0.04269262343 -0.04265711863 -0.007710486167)
(-0.06181393421 -0.03168492288 -0.01137381044)
(-0.04500664473 -0.03502699728 -0.007199753312)
(-0.05147477814 -0.01038942944 -0.005857449227)
(-0.02527524356 -0.01459180108 -0.001384476441)
(-0.01918873078 -0.007064544746 -0.004050161986)
(-0.002526856692 -0.02343197357 -0.003614978496)
(-0.006568642704 -0.01718394807 -0.005702143133)
(-0.008944317525 -0.01599767471 -0.0009267117324)
(0.06900402566 0.01277576942 -0.004835695228)
(0.07391141282 -0.01915162076 0.001116287705)
(0.06180334998 0.008414446243 -0.005768251719)
(0.06999218994 -0.01912981949 0.0001393538633)
(0.05040376041 -0.003317924555 -0.006700934837)
(0.04980233585 -0.032479002 -0.003637396712)
(0.01475252196 -0.01516197839 -0.009408910964)
(-0.0001364050449 -0.03544111006 -0.007788457967)
(-0.03971267733 -0.009123799916 -0.011488597)
(-0.04508996686 -0.02724503074 -0.005705125063)
(-0.063871272 -0.01387559421 -0.01118639184)
(-0.04848649129 -0.03999181863 -0.00565133384)
(-0.05901225637 -0.02581552872 -0.01175830278)
(-0.03651818688 -0.03341253979 -0.006755586678)
(-0.04291504517 -0.007867818075 -0.00803578981)
(-0.02298199865 -0.01192310654 -0.003006201921)
(-0.02274102006 0.000603928247 -0.005353723984)
(-0.007313582946 -0.01693350272 -0.002829576722)
(-0.004931130546 -0.0116520077 -0.00440247076)
(0.003506949478 -0.01488698973 8.812976009e-06)
(0.06747871835 0.01292352907 -0.005702185098)
(0.07305872548 -0.02304078742 -0.0002055298779)
(0.06210337831 0.00309215821 -0.004450559819)
(0.06655928434 -0.02863062801 9.981105855e-05)
(0.04623948043 -0.007873092252 -0.005124134798)
(0.045417382 -0.03905698881 -0.001897711552)
(0.01262956306 -0.01991962181 -0.006284191659)
(0.001082008275 -0.04538325443 -0.007149195823)
(-0.03687782484 -0.01874533429 -0.00983319665)
(-0.0458894081 -0.03694674839 -0.005644751391)
(-0.06643901484 -0.01450191577 -0.007128363201)
(-0.05121353962 -0.03507815857 -0.004223904796)
(-0.05714415456 -0.01583489371 -0.007562259587)
(-0.032380678 -0.03030976361 -0.005342841835)
(-0.03628329942 -0.01053426594 -0.006952971938)
(-0.01926093446 -0.01695146919 -0.004499921679)
(-0.0227618571 0.001969144433 -0.005964769689)
(-0.01124674722 -0.009983796377 -0.002665660547)
(-0.005020885658 0.0002113184554 -0.002773772242)
(0.009431633797 -0.008582579286 0.0003275370067)
(0.06172138875 0.01216846899 -0.005737929777)
(0.06712935307 -0.02643893718 0.0007180775622)
(0.05811706668 -0.002239279264 -0.004488437484)
(0.06210203457 -0.03664637002 -9.108761647e-05)
(0.04316682515 -0.01030054004 -0.006059059429)
(0.04130299955 -0.04261313273 -0.001854768269)
(0.01022548745 -0.01978803148 -0.006751868887)
(0.0009093270441 -0.04970467224 -0.006454837745)
(-0.03386847708 -0.0241179998 -0.0110854837)
(-0.04198411519 -0.04365730812 -0.005997810678)
(-0.06258473846 -0.01257955533 -0.009680936862)
(-0.04947621835 -0.02884928624 -0.004296581461)
(-0.05562842389 -0.004506849682 -0.007955294531)
(-0.03283889641 -0.02475389511 -0.003802889662)
(-0.03343131674 -0.009463597515 -0.007131454171)
(-0.01418105555 -0.02053164991 -0.005087659809)
(-0.01779135241 0.0008269509392 -0.007354100662)
(-0.008566029074 -0.005713010678 -0.002931282411)
(-0.003854855754 0.01117353923 -0.003130435817)
(0.009017427368 -0.002714495171 0.0001720755252)
(0.05727188208 0.01281447605 -0.003437226596)
(0.06304647794 -0.02985211688 0.002071599135)
(0.05519099902 -0.005053998788 -0.003580676602)
(0.0607106951 -0.04374680901 -0.000353967069)
(0.04217587883 -0.01406315736 -0.005156738)
(0.03871528032 -0.04972948969 -0.00215933799)
(0.007531253908 -0.02333165891 -0.004605954851)
(-0.001753589273 -0.05658254767 -0.004046481731)
(-0.0327447664 -0.03011414126 -0.00657232875)
(-0.03763803923 -0.05041573663 -0.005202445218)
(-0.05601435994 -0.01544451779 -0.007228868251)
(-0.0455809405 -0.03085844058 -0.004450190987)
(-0.05420754079 -0.00388198164 -0.004922880788)
(-0.03596974742 -0.02333203709 -0.002254611596)
(-0.03325991767 -0.004772107225 -0.004351553866)
(-0.01203683645 -0.01921046258 -0.004208525954)
(-0.01227681495 0.0001901456561 -0.006152640668)
(-0.003892061062 -0.006703181598 -0.003071670926)
(-0.002815120184 0.01378693157 -0.003516259292)
(0.00309306864 -0.001796940656 -0.0004350042287)
(0.04954397747 0.01485103446 -0.002532007495)
(0.05466291749 -0.02918098233 0.00274739927)
(0.04863585329 -0.00185349492 -0.004836384637)
(0.05554669736 -0.0443988143 -0.0008033137956)
(0.03909474652 -0.01627343322 -0.006518652968)
(0.03476700208 -0.05428441192 -0.003650987305)
(0.005310593433 -0.02620580887 -0.006176029655)
(-0.003647966611 -0.05943041247 -0.003204165355)
(-0.0296453943 -0.02912716414 -0.007109081606)
(-0.03154727245 -0.04951922794 -0.00575351661)
(-0.04880762851 -0.01359242547 -0.009457428286)
(-0.04139812439 -0.03277267284 -0.004675718729)
(-0.05025505049 -0.006228421491 -0.006111674258)
(-0.03356819261 -0.02124812068 -0.002276194574)
(-0.03051705153 0.004842619812 -0.004865708035)
(-0.01066555486 -0.01114911865 -0.003639877744)
(-0.009026669881 0.004339552829 -0.005477660439)
(0.001096546138 -0.008565416458 -0.002598570433)
(-0.0003064737329 0.009759217891 -0.004019909289)
(0.0002380486505 -0.0049603414 -0.0005162112536)
(0.04702749115 0.01811996106 -0.001736053057)
(0.05140309881 -0.02968139714 0.001893658231)
(0.04475615847 0.001560793727 -0.003992457373)
(0.05033149939 -0.04783080148 -0.0002760187611)
(0.03535551297 -0.02117053776 -0.004586822393)
(0.03171781646 -0.06331198056 -0.00336096203)
(0.003832277783 -0.0330527466 -0.004695871748)
(-0.003585824416 -0.06577841027 -0.00207068276)
(-0.02588208419 -0.03038352527 -0.004915194451)
(-0.02658200528 -0.05224931051 -0.005659211951)
(-0.04422100883 -0.01614785834 -0.006436763953)
(-0.04044699794 -0.03775750378 -0.003144188704)
(-0.04604990923 -0.01067683036 -0.003349804485)
(-0.02824042821 -0.02212643146 -0.002331526578)
(-0.02614829313 0.009212063278 -0.004414931488)
(-0.01233875902 -0.006410366041 -0.003326567118)
(-0.01057477012 0.008462282715 -0.003698003802)
(-2.598524546e-06 -0.009192336085 -0.001508180438)
(-0.0001761027032 0.006340991359 -0.002787786892)
(-0.000607144772 -0.008544787324 -0.0001073401832)
(0.04127822364 0.01935169827 -0.002606241498)
(0.04316624619 -0.02964590137 0.0009005816721)
(0.0361099936 0.001456875367 -0.003722812252)
(0.03932026441 -0.04958364145 0.0002581986964)
(0.0283438377 -0.0234595056 -0.003973860717)
(0.02638028198 -0.06700805319 -0.00321483047)
(0.003489849306 -0.03607433858 -0.006079820633)
(-0.001545904279 -0.06664939668 -0.003237146112)
(-0.02022401015 -0.0301093511 -0.007391096724)
(-0.0214045566 -0.05473957927 -0.006446701448)
(-0.03859585052 -0.01909030006 -0.006895929407)
(-0.03758705289 -0.03791725051 -0.002291646525)
(-0.03920525328 -0.006560907819 -0.003691070095)
(-0.01962450974 -0.01921593466 -0.002954699875)
(-0.01943010793 0.008401412801 -0.005906397779)
(-0.01115624224 -0.00737170819 -0.003759350967)
(-0.01106829897 0.01150383064 -0.003442773745)
(-0.000321394579 -0.005229385909 -0.001002919168)
(0.0002567968742 0.009422808986 -0.002289894159)
(0.001454699949 -0.007920396643 0.0004496832522)
(0.03973576351 0.01928608008 -0.002195307856)
(0.03892921486 -0.03450041766 0.0006848184203)
(0.03095122978 -0.002519668497 -0.001528697672)
(0.0325415274 -0.05534278017 0.000900791605)
(0.02322676253 -0.02417659906 -0.001514182098)
(0.02282211511 -0.07148579166 -0.001631712954)
(0.004005030976 -0.03871930679 -0.004311152043)
(0.0008362719852 -0.07036899607 -0.003157263328)
(-0.01760718213 -0.03538382534 -0.005220132227)
(-0.01871031912 -0.0647383813 -0.004411604638)
(-0.03237498021 -0.02863581975 -0.003711800352)
(-0.0316649711 -0.04090807851 -0.00160812561)
(-0.0328376515 -0.0006219283146 -0.001669034542)
(-0.01776888008 -0.01791622079 -0.002103989707)
(-0.01776618437 0.001824058353 -0.003973175314)
(-0.01013511777 -0.0148071738 -0.002798332848)
(-0.009105299045 0.01119037987 -0.002814660041)
(-0.001405901501 -0.0005545880685 -0.001373527679)
(-0.001963270066 0.01605790175 -0.002350197368)
(-0.00202646589 -0.003970315819 0.0001462167259)
(0.03057746663 0.01723904988 -0.001843145927)
(0.0279045181 -0.03812793762 0.001357501042)
(0.02166440135 -0.006557316066 -0.001319587889)
(0.02383822585 -0.05767591033 -0.0002320902246)
(0.01709149808 -0.02187869692 -0.002851893472)
(0.01612686466 -0.07083069055 -0.002118102848)
(0.004209655376 -0.03784696741 -0.005063808168)
(0.001014426287 -0.07112330458 -0.004272313215)
(-0.01635850044 -0.03871305413 -0.005001575873)
(-0.01654303381 -0.06984323472 -0.002267288802)
(-0.02182020017 -0.03437871058 -0.003872860621)
(-0.01785720547 -0.04241700008 -0.003318534416)
(-0.02296683796 0.003192954526 -0.003655762977)
(-0.01796220406 -0.01733788225 -0.001689226249)
(-0.0172224245 -0.002049165741 -0.002183342292)
(-0.004516789587 -0.01924468418 -0.001503453336)
(-0.001091422655 0.009810069095 -0.003283006615)
(0.003165427987 0.001251319066 -0.003087805523)
(-0.002020326837 0.01996830141 -0.004120713399)
(-0.007508125716 -0.001577236557 -0.001209186799)
(0.0250925344 0.01671432997 -0.0001015871774)
(0.02220107666 -0.04237749046 0.002110942469)
(0.01740054623 -0.008162825867 -0.0002637232624)
(0.02158625881 -0.06109063637 -0.001114234885)
(0.01408458151 -0.02310371461 -0.003135920274)
(0.01154309156 -0.07323265799 -0.001723725496)
(0.003702828382 -0.03873960679 -0.002686179033)
(0.0003741325972 -0.07617157027 -0.002907247625)
(-0.01679071583 -0.04251785674 -0.001037983811)
(-0.01558082325 -0.07201516136 0.001647563863)
(-0.01306342131 -0.03565239089 -0.001200889257)
(-0.005180914883 -0.04714900721 -0.004026279331)
(-0.01512204792 -0.003457231703 -0.00376915788)
(-0.02153327465 -0.02245500056 -0.0005256777874)
(-0.01913322858 -0.001204355449 0.0013428502)
(-0.001743108768 -0.01899231338 0.0007107749509)
(0.005294448752 0.007902533143 -0.002729834256)
(0.005799744256 -0.004250165764 -0.004160580046)
(-0.003778720924 0.01443417716 -0.005584284042)
(-0.01546481609 -0.004702589948 -0.002412485978)
(0.01255421921 0.01699917951 0.000367966236)
(0.01025323702 -0.04395368036 0.001908448828)
(0.008517912189 -0.007538952543 -0.0009544533758)
(0.01304421474 -0.06009969708 -0.002508337121)
(0.008552808683 -0.02734747909 -0.004978781389)
(0.00506943759 -0.07524785857 -0.002781768547)
(0.002142464281 -0.04046816892 -0.002840045283)
(-0.001452287564 -0.08085951722 -0.002942159299)
(-0.01334960566 -0.04252133092 -0.0009467017599)
(-0.01158912322 -0.06508956681 0.002231131126)
(-0.00425168883 -0.02805214211 -0.001561826704)
(0.004825755314 -0.04643362597 -0.004936844676)
(-0.00555795364 -0.01547797118 -0.005410900622)
(-0.01645251313 -0.0290109483 -0.0008188556812)
(-0.01481126214 0.002589131106 0.001645712524)
(0.001882405183 -0.01334029803 0.001315408681)
(0.009396497738 0.005275068506 -0.002468070673)
(0.007871484334 -0.01462637495 -0.004385268459)
(-0.002122188776 0.001144969557 -0.005584908948)
(-0.01472316288 -0.01194709604 -0.002759221167)
(0.006136842955 0.01666837207 0.0008326601559)
(0.005349071255 -0.04343143306 0.000895951515)
(0.006236558505 -0.00455316283 0.0002108498114)
(0.008080172617 -0.06416363764 -0.0008929266962)
(0.003513478463 -0.03347536015 -0.00187966561)
(0.002416148327 -0.08135808739 -0.0005122782665)
(-0.0004139896402 -0.04416831744 -6.496260938e-05)
(-0.001207152643 -0.08412832149 3.898877566e-05)
(-0.005872368227 -0.04121526986 0.001017620741)
(-0.005612380157 -0.05675198722 0.001735745661)
(3.478097035e-05 -0.01748705518 0.0006219807672)
(0.003795882602 -0.05062961865 -0.002217187613)
(-0.002708909685 -0.029303656 -0.002168670616)
(-0.008715088426 -0.03824298689 0.0001893041893)
(-0.00792160371 0.006314293354 0.001906635182)
(7.332712426e-05 -0.005527211267 0.001124357481)
(0.004273798073 0.003544989509 -0.0007252887121)
(0.002718060627 -0.02547377569 -0.001701513338)
(-0.001956286451 -0.01187269473 -0.00241050842)
(-0.008296388591 -0.02027331138 -0.001162416408)
(0.07634277781 -0.001508547886 -0.005221288414)
(0.07254021007 -0.004449012293 0.008027422303)
(0.05472268203 0.00581239768 -0.01789057026)
(0.08026351378 0.003058455746 -0.006766597927)
(0.0529051439 -0.00062793703 -0.02364602016)
(0.05000056762 -0.003024811265 -0.0137868017)
(0.01361357252 0.001657136583 -0.03195119209)
(0.01902734948 -0.001225916246 -0.0283816258)
(-0.0187878923 0.0002908937452 -0.02856480866)
(-0.0181196768 0.0003185418673 -0.01695416827)
(-0.04077099983 0.0005947095311 -0.02537974777)
(-0.02710111458 -0.004488882322 -0.03177565781)
(-0.05035558729 -0.007549234229 -0.03121220297)
(-0.04583410369 -0.008639640607 -0.02492261513)
(-0.06216272043 -0.002973256361 -0.01388886868)
(-0.03812061254 -0.0007816633816 -0.01340565394)
(-0.03291151675 -0.0001860436497 -0.0109391804)
(-0.0200965879 -0.00348020464 -0.01915250642)
(-0.029359813 -0.004027779045 -0.01506447771)
(-0.03559937608 -0.003386337844 -0.01335704898)
(0.07216236489 -0.00450210352 -0.008250748168)
(0.07765573501 -0.01099102159 0.008013789045)
(0.0599869145 0.008697818997 -0.01225508663)
(0.07572140569 0.005319239453 -0.001035635544)
(0.0486058508 -0.002512307912 -0.02304227984)
(0.05159721309 -0.004632793495 -0.01492771009)
(0.01485844482 0.00168401025 -0.03108037752)
(0.01809885222 -0.003373015308 -0.02701712753)
(-0.01770763855 -0.005066840992 -0.03154073299)
(-0.01786624297 -0.003569323089 -0.02284650797)
(-0.04420991263 -0.006081681015 -0.02663858401)
(-0.03286187786 -0.01242813639 -0.02708742787)
(-0.05330614511 -0.02188635401 -0.02826947985)
(-0.04261302666 -0.02233882822 -0.02639152383)
(-0.05659663093 -0.01377734784 -0.01841597235)
(-0.03617459266 -0.007053649272 -0.01704830247)
(-0.03481109222 -0.005336860065 -0.01126962794)
(-0.02281387361 -0.009449478448 -0.01589812459)
(-0.02926235639 -0.009488438462 -0.01020382404)
(-0.03044711336 -0.007026041673 -0.009928642561)
(0.06552788757 -0.002013194422 -0.01269348631)
(0.08171319156 -0.0121246255 0.006459711298)
(0.06622543132 0.00703977285 -0.01048216808)
(0.07232360007 0.001359396451 0.001161047724)
(0.0459142546 0.003144219882 -0.02378893923)
(0.05293808761 -0.0004280014474 -0.0157484465)
(0.0144902166 0.007335726872 -0.02896191247)
(0.0142920926 -0.003155870382 -0.02300667457)
(-0.01897366311 -0.00652708451 -0.03347968348)
(-0.01876054467 -0.01231008696 -0.02757331839)
(-0.04708890971 -0.01267688288 -0.02819045726)
(-0.03822412888 -0.01862878669 -0.02180117816)
(-0.05738428032 -0.02393952707 -0.0241960175)
(-0.04013940742 -0.02927055942 -0.02618670321)
(-0.05137521328 -0.02261276068 -0.02202133331)
(-0.03218094094 -0.01941316317 -0.02125048276)
(-0.03457338298 -0.01268857996 -0.0124531039)
(-0.02306611889 -0.01404654889 -0.01342163475)
(-0.0275750797 -0.008198681127 -0.005006892744)
(-0.02424886496 -0.006403300282 -0.005992630483)
(0.06233711787 0.004113260171 -0.01601707089)
(0.08388625459 -0.004549882689 0.003832666447)
(0.06963017702 0.002859980482 -0.01314631143)
(0.07286850545 -0.005338738479 -0.001188338263)
(0.04744618425 0.004884239847 -0.02625910128)
(0.05448854328 -0.0003693741258 -0.01729365647)
(0.01291346696 0.006546786284 -0.02719982524)
(0.008363767006 -0.00321665425 -0.01851203227)
(-0.02424811832 -0.01000875274 -0.03283208288)
(-0.02209280993 -0.02114850397 -0.02971950247)
(-0.04872889905 -0.02361497132 -0.03167273902)
(-0.04078123742 -0.02337640954 -0.02043246802)
(-0.0608266935 -0.02457963972 -0.02295078972)
(-0.04168801262 -0.03089791753 -0.02453331815)
(-0.04963939858 -0.03008820495 -0.02255698153)
(-0.02915626749 -0.03052673529 -0.02238364168)
(-0.03100493634 -0.02104525355 -0.01368088957)
(-0.01966185104 -0.01733000938 -0.01300473855)
(-0.02370955402 -0.00569875025 -0.003489258936)
(-0.02056560544 -0.003413543829 -0.004077900885)
(0.06544600618 0.01336887278 -0.01403352027)
(0.08077952986 0.004491963834 0.005191417241)
(0.06582226526 0.003309214694 -0.01609973251)
(0.07361737424 -0.009965368693 -0.002712170143)
(0.04953039364 0.006592350639 -0.02539765075)
(0.05403697011 -0.004922006264 -0.01718275262)
(0.01246791828 0.005040303083 -0.02691053952)
(0.002649930016 -0.004182530358 -0.01434497793)
(-0.03171201877 -0.007035294595 -0.02793214496)
(-0.02824866554 -0.02524703983 -0.02586620797)
(-0.04872638989 -0.02734098228 -0.0344656206)
(-0.038871161 -0.0280892798 -0.02254757781)
(-0.06271694099 -0.02275917854 -0.02372612932)
(-0.04402033305 -0.03098497202 -0.02209811968)
(-0.05110968317 -0.02898813332 -0.01929465125)
(-0.02577253605 -0.03405130566 -0.02008513462)
(-0.0252199669 -0.02316423361 -0.01348774815)
(-0.01221095135 -0.0201897175 -0.01499037513)
(-0.01750507738 -0.004238967274 -0.00584538267)
(-0.01831291284 -0.003002001942 -0.005407154016)
(0.07518758898 0.0151891584 -0.008634912842)
(0.07691551975 0.002368251163 0.009608060982)
(0.05957730788 0.001968933183 -0.01542296993)
(0.07502851866 -0.01290748178 -0.0006895147031)
(0.05111701055 0.002936672778 -0.02203236931)
(0.05331788144 -0.01218602461 -0.01663772413)
(0.01343041906 -0.001151908425 -0.02961737885)
(-0.0001153192175 -0.0100073425 -0.01486463154)
(-0.0392017859 -0.006662757018 -0.02532374182)
(-0.03630791955 -0.02451472915 -0.02319210674)
(-0.05079170646 -0.02746086327 -0.040469662)
(-0.03754416739 -0.03256513627 -0.02848492466)
(-0.06290083917 -0.02676642254 -0.02899048627)
(-0.04609778938 -0.0317072149 -0.02187959591)
(-0.05179116329 -0.02432163729 -0.0166006581)
(-0.02503922532 -0.02925658179 -0.01584939354)
(-0.02116950184 -0.02069476643 -0.01201759278)
(-0.00625816325 -0.02256564394 -0.01695785646)
(-0.0113094859 -0.007709744358 -0.01028150664)
(-0.01596994837 -0.00629703648 -0.00768410585)
(0.07795767002 0.01029438619 -0.005514538343)
(0.07161069909 -0.0111639996 0.01073654361)
(0.05524495678 0.003267321124 -0.01447106453)
(0.07413246622 -0.01415119145 0.001837360701)
(0.05014840811 0.001430932754 -0.01927643411)
(0.05108928294 -0.01762304211 -0.01453013358)
(0.01400168442 -0.003586941043 -0.03075054768)
(-0.001181943128 -0.0188247855 -0.01570281719)
(-0.04203413501 -0.005761438179 -0.02305528359)
(-0.04283342524 -0.02143687872 -0.01837199729)
(-0.05445278662 -0.02053392642 -0.03986632211)
(-0.03839086394 -0.03549789141 -0.02839407798)
(-0.06212857186 -0.02882159686 -0.03019771302)
(-0.04232925614 -0.03321133462 -0.02223061732)
(-0.04937235344 -0.01660931263 -0.01500419052)
(-0.02322590547 -0.02165979522 -0.01269540295)
(-0.02046376475 -0.01353189536 -0.009377208423)
(-0.003007526794 -0.02302617872 -0.01734025053)
(-0.005801845347 -0.01163742912 -0.01214539714)
(-0.00889780604 -0.01122334209 -0.009244095452)
(0.07448855605 0.005136313075 -0.007666217254)
(0.0720591984 -0.02370550338 0.007824400098)
(0.05769971373 0.006080128297 -0.01416189586)
(0.07357097261 -0.01652025558 0.00218007271)
(0.04880240429 -0.001346620541 -0.01936385599)
(0.04972506989 -0.02352234258 -0.01248518816)
(0.01255321089 -0.008241469078 -0.03003885297)
(-0.001549151106 -0.03036406852 -0.01895185446)
(-0.04113034512 -0.01089671377 -0.02792700115)
(-0.04663673537 -0.02295801908 -0.02070698498)
(-0.06073184401 -0.01348219324 -0.0433785429)
(-0.04346477058 -0.03629859332 -0.02674765012)
(-0.06125126214 -0.02853122663 -0.031296237)
(-0.03753998381 -0.03419570616 -0.02403871)
(-0.04361831853 -0.01304069736 -0.01779462712)
(-0.02288106865 -0.01785973738 -0.01309406899)
(-0.02213152083 -0.007689481191 -0.008791018118)
(-0.004909657216 -0.02062259904 -0.01553362281)
(-0.002811794534 -0.01214861752 -0.01035682618)
(-0.0002417145496 -0.01395881199 -0.008003242931)
(0.06461798639 0.006008027387 -0.01301153764)
(0.07232509426 -0.02601384716 0.002345600929)
(0.06049641127 0.009188080222 -0.01452661824)
(0.06872408774 -0.0194835494 0.001203739664)
(0.04535997431 -0.001814141332 -0.01922891842)
(0.04617636872 -0.02711491231 -0.008855238824)
(0.009130094826 -0.01006289059 -0.02471892045)
(-0.002927065903 -0.03698136675 -0.01837416068)
(-0.03690355198 -0.01329883134 -0.02849475463)
(-0.04459439307 -0.02796102521 -0.01931430241)
(-0.06386851657 -0.007067685871 -0.02932794324)
(-0.04907658348 -0.03340714139 -0.0183169376)
(-0.06058060499 -0.01856708869 -0.02381758466)
(-0.03146145773 -0.02988346718 -0.02286923849)
(-0.03781564341 -0.009903335113 -0.01942511579)
(-0.01942928885 -0.01785469972 -0.01596131371)
(-0.02242828621 -0.003001058143 -0.009935452829)
(-0.00615006103 -0.01515846081 -0.01360167553)
(-0.0009727070991 -0.006022675867 -0.006031526944)
(0.00917025084 -0.0124765407 -0.005482947854)
(0.06008165087 0.01123090973 -0.01621773807)
(0.07440214299 -0.023815038 7.951839854e-05)
(0.06250753189 0.005526179904 -0.01412962041)
(0.06562933877 -0.02905653804 0.0003333612607)
(0.04358450925 -0.006677861219 -0.01802412674)
(0.04384938366 -0.03571834855 -0.006197682274)
(0.005540733516 -0.01491207725 -0.02079865242)
(-0.003681196464 -0.04286007879 -0.01819364199)
(-0.03484416243 -0.01796729375 -0.03162650474)
(-0.04217621697 -0.0375412897 -0.02223340607)
(-0.06457149159 -0.01159091399 -0.02771990684)
(-0.05165854372 -0.0325529498 -0.01639028081)
(-0.05870814377 -0.008634166436 -0.02096541028)
(-0.03150560429 -0.02475550685 -0.02089342651)
(-0.03510540842 -0.008787127595 -0.02004250953)
(-0.0179778555 -0.02095593159 -0.018813151)
(-0.02024585715 -0.001822734322 -0.01316691898)
(-0.007034271513 -0.01022868546 -0.01279356836)
(-0.0008269723164 0.002651334855 -0.002987311082)
(0.01248044673 -0.008276652884 -0.003547948416)
(0.05546174717 0.01652009628 -0.01398458602)
(0.06850805056 -0.02214015196 0.002189935875)
(0.05704093391 -0.0005774837724 -0.01268785323)
(0.05996092712 -0.03748346135 -1.633002161e-06)
(0.04080465414 -0.01036742503 -0.01650485675)
(0.04034429644 -0.04317856585 -0.005147584663)
(0.004020702767 -0.01661791378 -0.01772425753)
(-0.004903380343 -0.04381573897 -0.01469809181)
(-0.03325830348 -0.01790287415 -0.02633100268)
(-0.04002150298 -0.042830166 -0.01936798763)
(-0.06032261738 -0.01272667747 -0.02182616458)
(-0.04706639168 -0.02932909864 -0.01464396719)
(-0.05502203184 0.0004976818921 -0.01561851956)
(-0.0316736348 -0.01896147542 -0.0157213317)