/*--------------------------------*- C++ -*----------------------------------*\
| =========                 |                                                 |
| \\      /  F ield         | OpenFOAM: The Open Source CFD Toolbox           |
|  \\    /   O peration     | Version:  5.x                                   |
|   \\  /    A nd           | Web:      www.OpenFOAM.org                      |
|    \\/     M anipulation  |                                                 |
\*---------------------------------------------------------------------------*/
FoamFile
{
    version     2.0;
    format      ascii;
    class       volScalarField;
    location    "6.4";
    object      p;
}
// * * * * * * * * * * * * * * * * * * * * * * * * * * * * * * * * * * * * * //

dimensions      [1 -1 -2 0 0 0 0];

internalField   nonuniform List<scalar> 
30538
(
101288.9176
101267.4942
101251.3922
101234.8635
101223.2217
101214.0857
101224.1272
101230.53
101236.4953
101243.0013
101260.1825
101277.6663
101290.5042
101295.058
101298.974
101301.9621
101307.0265
101313.4345
101317.2024
101309.2904
101289.2798
101267.6378
101249.4288
101232.8039
101224.1441
101215.0088
101222.6979
101229.7215
101237.9671
101244.0075
101258.5656
101275.3456
101291.2498
101299.0689
101303.6411
101305.6272
101307.7799
101309.6284
101310.2899
101305.2119
101289.776
101267.8686
101247.9865
101231.3947
101226.386
101218.1773
101222.2219
101229.1422
101239.9854
101245.8784
101256.8635
101272.136
101291.1537
101303.0445
101308.5786
101308.9407
101308.1499
101306.5824
101304.8954
101301.8723
101289.7467
101267.652
101248.6898
101232.4117
101229.8211
101223.7794
101224.4226
101229.4224
101241.2576
101247.9821
101256.9819
101270.1318
101289.8269
101303.7953
101309.5452
101308.516
101307.0011
101306.2742
101305.8293
101302.4457
101288.7459
101266.516
101251.1115
101235.5442
101233.5564
101230.4408
101229.7935
101231.3083
101241.571
101250.3486
101259.8141
101270.2375
101287.3457
101301.0025
101306.4874
101304.6266
101304.5087
101308.1241
101311.9578
101306.2314
101287.4233
101265.3307
101254.5239
101239.8779
101237.0353
101235.9824
101236.9004
101234.8362
101241.8238
101252.6011
101264.497
101272.3393
101284.5273
101296.1319
101301.6806
101300.4876
101301.9518
101308.4682
101315.3292
101308.5803
101287.5196
101266.4985
101258.1498
101244.4393
101240.6716
101239.7759
101242.9646
101239.5499
101243.6014
101254.8866
101268.3871
101274.4653
101281.7588
101290.5164
101297.8781
101299.4615
101300.9591
101304.6953
101308.8645
101304.7292
101289.7889
101271.0347
101261.6193
101248.909
101245.2595
101242.545
101246.4887
101244.2056
101247.4956
101257.2506
101270.2836
101275.8474
101279.1553
101284.9397
101294.9751
101300.8302
101301.3465
101297.6293
101293.9542
101295.8629
101293.8047
101277.9232
101264.9332
101253.4123
101251.6027
101246.5466
101248.054
101248.3269
101253.5001
101260.6113
101270.8481
101276.3052
101277.8167
101280.5417
101291.3395
101301.0166
101301.248
101290.9482
101280.1149
101287.4786
101297.5748
101284.2065
101267.9599
101257.69
101259.0112
101253.1368
101250.2286
101251.5577
101259.3228
101264.0891
101270.7315
101276.4367
101278.9563
101278.4255
101285.5884
101295.3597
101297.5842
101287.5849
101276.6172
101285.7506
101299.2987
101287.8882
101271.2625
101261.7469
101266.1068
101261.6215
101255.7071
101255.6228
101263.7288
101266.3266
101269.8596
101276.0625
101281.3735
101278.7993
101278.6464
101283.9554
101289.5753
101287.4185
101284.4819
101291.6351
101298.8596
101288.9184
101275.9737
101266.5114
101271.3051
101269.467
101265.0003
101262.5628
101266.4091
101266.6518
101268.3458
101274.711
101282.7618
101281.0285
101273.322
101271.1174
101278.8713
101288.3332
101297.0756
101301.1414
101297.397
101288.8487
101282.0768
101273.1766
101274.4941
101274.7976
101275.6553
101271.9267
101269.5668
101266.3526
101267.7353
101273.0501
101281.885
101282.6767
101272.0404
101263.2402
101270.5046
101287.6353
101305.1886
101308.1018
101296.7805
101289.9144
101289.1022
101281.6369
101276.8287
101276.9412
101283.628
101280.865
101273.742
101267.8836
101268.6927
101271.8579
101277.931
101280.6921
101273.7399
101264.405
101269.2285
101285.6757
101304.7249
101308.3286
101297.3818
101292.9465
101295.2634
101290.0266
101280.174
101277.939
101287.1106
101286.4607
101278.9166
101272.6494
101272.7203
101272.3978
101272.8995
101275.6365
101275.7135
101272.7915
101275.0585
101284.3777
101297.8385
101303.2385
101298.9366
101296.9802
101298.6968
101294.7318
101285.9613
101281.6811
101287.3245
101287.6496
101283.2029
101279.3332
101278.6302
101275.2713
101270.1719
101270.773
101277.3309
101282.4504
101284.4838
101286.0525
101291.2111
101297.3136
101300.3785
101300.5424
101299.206
101295.2649
101292.6606
101289.1982
101288.1465
101286.6132
101286.0831
101285.2689
101284.448
101280.0197
101272.2139
101270.5635
101279.6297
101290.063
101293.0709
101290.081
101288.8292
101293.8022
101301.1766
101302.424
101297.9242
101294.161
101298.3603
101297.1606
101291.6429
101288.0838
101288.5123
101289.2518
101289.1666
101285.1776
101278.3676
101275.7158
101283.675
101295.1946
101298.4466
101294.4241
101290.3277
101293.8364
101301.2609
101302.8113
101297.2971
101292.1009
101300.7759
101303.5431
101296.5733
101291.6319
101291.5811
101292.0768
101293.0846
101290.8765
101287.325
101285.7431
101289.9225
101297.8846
101300.3528
101298.0011
101295.0642
101296.1774
101300.7684
101300.4777
101298.2908
101298.0492
101300.6694
101302.4038
101299.9054
101296.8787
101296.15
101296.6749
101297.1382
101297.4418
101296.5258
101295.6769
101296.8153
101299.3742
101300.191
101299.6714
101299.4138
101298.602
101291.4036
101272.1144
101252.2585
101239.2151
101235.0342
101228.2845
101232.5029
101237.8583
101249.8024
101256.8243
101266.086
101279.3748
101296.7553
101304.6213
101305.3594
101305.7861
101310.1217
101313.8042
101312.0886
101304.8778
101290.8214
101271.1724
101252.1565
101238.1763
101235.5031
101228.9318
101230.7257
101236.2521
101249.9516
101257.6411
101266.205
101278.3684
101295.4333
101304.9117
101307.5592
101308.0687
101310.671
101312.0963
101309.2838
101303.373
101290.3863
101270.518
101253.7949
101239.1945
101236.2038
101230.1943
101230.4234
101235.6489
101249.984
101258.5102
101267.081
101277.658
101292.9303
101303.733
101309.2761
101309.9864
101310.6041
101309.8737
101306.861
101302.298
101290.1031
101270.3121
101256.7424
101242.4244
101237.2832
101232.1207
101233.5263
101237.3014
101249.1551
101258.754
101268.804
101278.3868
101290.291
101300.8704
101308.2502
101309.4631
101309.1641
101308.1524
101306.6381
101302.8736
101289.3963
101269.8863
101259.5495
101246.4364
101239.0681
101235.336
101240.2153
101241.4913
101247.9434
101258.1966
101271.5133
101280.0957
101287.7299
101296.7999
101305.2582
101307.0396
101307.0376
101307.3971
101308.7159
101304.805
101288.7677
101269.5871
101261.2749
101249.7028
101241.9022
101239.2798
101247.8437
101247.0091
101247.771
101257.5053
101273.6925
101281.7686
101285.973
101293.0313
101301.4739
101304.2013
101305.1599
101307.0049
101309.9247
101305.8109
101289.7376
101271.4051
101262.1881
101252.1545
101246.2764
101243.6595
101252.6001
101251.4464
101250.6989
101258.563
101273.8097
101281.708
101285.2665
101290.3735
101298.0982
101301.7376
101303.6774
101305.534
101307.5666
101304.0836
101292.3443
101275.5578
101263.5341
101254.7525
101252.488
101248.8923
101253.499
101253.5892
101256.0913
101261.4866
101272.0365
101279.6332
101284.574
101288.758
101294.8806
101299.1804
101301.9991
101302.5484
101301.7532
101300.0647
101295.9952
101281.1058
101267.0572
101258.5593
101260.0484
101255.9141
101253.4749
101254.307
101262.2902
101266.3235
101270.4686
101276.7384
101283.998
101287.4349
101291.3294
101295.3306
101298.8148
101298.474
101295.3211
101296.093
101298.5072
101285.795
101272.3284
101263.3401
101267.0661
101264.1086
101256.1429
101255.5392
101267.1934
101271.0591
101271.0301
101274.6508
101282.6842
101285.9702
101287.1781
101289.3925
101293.427
101294.2629
101292.2896
101294.9203
101298.714
101288.5606
101278.3462
101268.4856
101271.9934
101271.305
101263.3487
101259.7149
101270.0421
101274.6986
101273.6422
101273.58
101280.2597
101283.8979
101283.1188
101282.496
101286.796
101290.7911
101293.3589
101296.746
101297.7096
101289.4149
101283.4497
101273.636
101274.5931
101275.8872
101272.7387
101267.2432
101271.8861
101275.9529
101275.8914
101272.9733
101276.7133
101280.9879
101279.7238
101276.6788
101280.5645
101288.4601
101296.2402
101300.2281
101296.9184
101289.8146
101287.4622
101279.2298
101276.3913
101278.0629
101281.7792
101276.7143
101274.7925
101275.5771
101277.1277
101273.5151
101274.138
101278.0185
101277.6296
101273.9401
101277.2227
101286.8253
101297.6365
101302.0453
101297.3752
101291.483
101290.5633
101285.2144
101279.6533
101279.8428
101287.6368
101285.0606
101278.5526
101275.1723
101277.2362
101275.4256
101274.2337
101275.9973
101276.1941
101274.3918
101277.425
101285.8765
101296.3459
101301.3621
101298.4144
101294.5532
101293.5258
101291.0139
101285.4638
101283.3968
101290.4832
101290.2318
101283.046
101276.3467
101278.2068
101279.0256
101277.5086
101275.5419
101275.9687
101277.3586
101280.8279
101285.9682
101293.1307
101298.5807
101299.2872
101298.0222
101296.0963
101293.7885
101291.3728
101288.948
101291.3856
101291.6067
101286.7592
101279.3499
101279.6698
101282.9771
101282.3298
101277.3294
101276.6711
101280.8193
101285.2323
101287.6271
101290.7324
101295.9192
101299.3197
101300.9118
101297.9973
101293.8979
101295.3921
101295.0636
101292.9585
101291.3853
101289.6995
101283.8022
101282.336
101286.1308
101287.1032
101281.0512
101279.2765
101284.646
101290.07
101290.9166
101290.7028
101294.7447
101299.4028
101302.4371
101299.1922
101293.6185
101296.867
101298.6169
101295.3444
101292.4197
101292.5258
101289.0572
101285.6461
101288.2889
101290.4253
101285.8129
101283.6288
101288.6029
101294.2175
101294.6159
101292.7986
101295.4901
101299.7736
101302.5084
101299.5922
101292.883
101297.176
101300.2578
101298.1006
101294.6363
101295.4387
101293.7215
101290.3958
101290.4415
101293.0393
101291.4606
101290.0257
101293.2605
101297.6639
101297.7648
101295.9104
101297.2863
101300.1495
101300.8319
101299.7665
101297.3699
101298.3398
101301.0108
101300.1183
101298.3707
101298.1802
101297.2498
101296.1479
101296.4745
101297.012
101297.6219
101296.8815
101297.5808
101299.7078
101299.5789
101298.9163
101299.2299
101297.0992
101280.767
101257.5788
101248.901
101251.788
101250.9981
101248.2722
101249.0313
101267.5174
101279.8155
101281.7626
101285.4181
101304.6814
101317.6746
101316.3219
101310.4738
101310.0452
101311.4224
101308.6979
101301.1084
101293.807
101276.8039
101260.6591
101250.4551
101252.0024
101252.3603
101248.2323
101247.6457
101264.9549
101278.6717
101283.4448
101286.0919
101299.9811
101312.1513
101314.945
101312.3005
101312.54
101313.0994
101309.4926
101301.83
101290.3805
101273.6128
101264.8546
101253.9363
101251.3204
101251.3284
101248.3069
101248.2451
101262.8863
101276.9063
101285.8223
101288.4862
101295.2084
101304.5335
101311.7911
101313.3265
101314.2919
101313.0799
101308.7823
101302.1388
101289.1431
101273.1209
101268.093
101258.3555
101250.502
101247.8808
101250.2333
101252.7236
101262.4561
101273.8806
101287.6228
101293.0396
101293.4524
101297.8946
101307.7511
101313.2775
101314.3022
101310.4442
101306.087
101301.5961
101290.0941
101275.5199
101269.9614
101262.2853
101250.5836
101244.7744
101255.6287
101260.866
101262.6366
101268.5319
101286.9056
101297.737
101294.9508
101294.3247
101304.0715
101312.1126
101312.9667
101307.1528
101303.1164
101300.7455
101293.1436
101280.1738
101270.5888
101264.9875
101252.3989
101244.4922
101262.6816
101269.5013
101263.973
101263.5359
101282.7259
101298.5374
101297.8846
101294.3381
101301.5944
101309.4875
101310.6593
101305.4105
101302.2419
101300.9139
101296.6477
101284.6264
101269.9216
101265.8542
101257.1837
101248.4988
101265.2658
101272.9843
101268.0506
101263.8903
101277.6963
101294.3479
101298.6402
101295.7974
101299.423
101305.1839
101307.7431
101305.677
101304.5817
101302.399
101298.4059
101286.5196
101270.3372
101266.455
101263.6806
101256.8618
101263.8965
101270.2912
101272.9013
101269.8368
101274.6418
101287.4108
101296.1607
101296.59
101297.0784
101299.3442
101303.4452
101306.2528
101308.5083
101304.5381
101297.9022
101285.5437
101274.1188
101268.5245
101270.626
101268.0878
101263.9235
101266.5221
101275.8076
101276.0259
101275.5344
101281.2214
101291.3767
101295.9654
101294.8228
101293.6931
101297.9585
101304.7364
101310.1521
101305.5416
101295.2199
101283.9824
101281.0801
101273.3795
101275.4704
101277.8591
101270.6603
101266.8283
101275.9684
101280.3761
101279.229
101278.367
101285.5097
101292.4911
101292.8838
101289.8251
101292.7092
101300.4616
101307.3716
101304.3934
101292.8191
101284.8515
101289.3388
101280.0977
101277.2282
101282.5418
101281.3628
101272.5014
101274.8858
101282.5576
101284.5613
101279.1096
101279.2442
101285.9966
101290.236
101288.0282
101289.0466
101294.5448
101300.9577
101301.3917
101293.8779
101287.8886
101294.8627
101286.8853
101277.7702
101282.3217
101289.2834
101280.7441
101276.5234
101283.3218
101289.6186
101281.5476
101274.2864
101278.0898
101285.9719
101287.1916
101287.3691
101289.2378
101293.978
101297.6835
101297.6856
101292.6227
101295.7615
101291.533
101279.8752
101281.2403
101291.8333
101287.9937
101281.5097
101283.1406
101290.396
101283.7295
101273.3306
101272.5487
101281.5247
101286.2894
101286.799
101286.1948
101289.4067
101295.1319
101301.0536
101297.1728
101293.3734
101292.8648
101286.8359
101284.6791
101291.6407
101292.3355
101286.7664
101282.4522
101287.3328
101284.6835
101277.3268
101273.0634
101278.9081
101284.0685
101286.0562
101285.7526
101288.4634
101294.3021
101301.686
101299.6034
101291.8133
101292.3391
101296.0635
101293.5987
101292.2825
101293.7589
101290.1565
101282.3346
101283.3264
101286.1507
101285.6908
101280.1387
101278.9025
101281.0622
101284.7279
101287.1654
101290.1838
101294.8076
101299.7702
101300.009
101292.8982
101291.5586
101301.3025
101301.9209
101295.1941
101294.1731
101292.1259
101283.8235
101281.6749
101288.0978
101294.0238
101288.9794
101280.7476
101278.994
101284.116
101289.4492
101292.4527
101295.7955
101297.4876
101300.7577
101296.4229
101291.9595
101300.4804
101304.5043
101299.1166
101295.2669
101294.3321
101287.7401
101282.7525
101289.4492
101298.6639
101295.0656
101283.3973
101278.8394
101285.6755
101292.2531
101294.8606
101296.9995
101297.8602
101302.2192
101300.584
101295.7057
101296.3868
101300.7099
101300.448
101296.7652
101297.9646
101293.4428
101286.0293
101290.3048
101298.8931
101296.6173
101286.0037
101281.4893
101289.2002
101295.4097
101296.6884
101297.925
101300.4294
101302.6739
101302.7265
101300.0026
101293.9281
101294.757
101299.7912
101298.4703
101301.4031
101298.2875
101290.8388
101291.2172
101297.0849
101295.9986
101289.9273
101287.7306
101294.1425
101297.9705
101297.2203
101298.6646
101301.8984
101301.6175
101301.7694
101299.0508
101296.0595
101298.9841
101299.9942
101299.9537
101301.3646
101299.2262
101296.446
101296.2231
101297.3447
101298.0176
101296.0707
101295.5388
101298.7893
101299.6956
101298.4892
101299.8231
101300.5164
101285.8521
101269.6387
101266.0919
101267.43
101267.7149
101271.3784
101270.8336
101278.3373
101294.0646
101310.3852
101309.5812
101310.2435
101319.6571
101330.3831
101325.9188
101312.877
101305.0318
101305.6307
101301.338
101295.722
101281.7019
101278.041
101272.6665
101266.8902
101273.1632
101277.6343
101270.9771
101276.9111
101295.5099
101309.7094
101306.3749
101305.6302
101315.3646
101324.7838
101321.5481
101313.899
101309.6689
101309.6981
101303.2945
101289.9612
101278.0114
101282.4562
101275.2914
101266.367
101274.9156
101278.805
101271.0762
101277.9172
101295.5964
101307.2383
101305.2496
101304.4773
101310.4586
101316.456
101316.6686
101315.8868
101313.828
101311.6149
101303.9443
101287.6537
101277.4097
101278.7628
101272.3586
101267.5826
101271.3646
101273.3802
101272.9555
101282.2258
101293.9554
101302.9397
101306.2567
101308.6777
101308.6352
101310.009
101314.2693
101318.1633
101314.7028
101308.5265
101301.6698
101292.1383
101284.9085
101275.3045
101270.8782
101270.1101
101265.2712
101268.9201
101279.8879
101289.1556
101288.5853
101295.3199
101309.8139
101316.9373
101309.3604
101306.011
101314.0889
101319.8269
101312.1851
101301.7564
101297.3472
101301.9957
101297.6495
101275.7313
101274.2309
101273.8012
101260.6134
101267.1339
101289.8987
101296.5782
101281.3943
101284.4013
101308.7653
101321.8631
101310.9759
101303.9774
101313.3873
101318.9959
101308.7061
101296.6036
101294.9858
101308.9467
101305.0189
101279.0424
101278.928
101277.4791
101261.5059
101266.8506
101291.9935
101302.4391
101282.1378
101275.9892
101302.1187
101320.2869
101311.4559
101303.0263
101310.0481
101314.7994
101306.9269
101298.682
101297.3916
101306.6904
101300.7581
101283.1084
101281.2739
101279.6532
101269.2991
101268.777
101286.5203
101301.541
101289.8331
101278.8516
101294.857
101312.0454
101309.0641
101301.8645
101304.284
101307.8785
101307.1424
101306.7331
101303.7666
101296.7209
101287.5149
101286.8176
101282.3737
101280.7517
101280.8526
101277.2334
101282.3581
101293.2463
101292.8985
101289.4414
101291.3735
101299.6552
101302.8868
101300.67
101299.3406
101301.2892
101306.5504
101313.5498
101309.2724
101285.6688
101276.6382
101291.0948
101284.766
101279.7094
101288.289
101291.4506
101286.2193
101283.1201
101288.8209
101296.9968
101291.8136
101288.9148
101294.1243
101298.9304
101298.2122
101297.8512
101303.5424
101312.9679
101309.1979
101283.1313
101276.547
101297.1136
101290.9774
101278.0683
101288.8213
101305.6998
101295.4705
101277.4412
101283.9233
101300.8387
101294.8976
101283.2102
101284.2123
101295.6672
101300.3617
101298.0643
101298.1734
101303.7364
101303.143
101290.4582
101286.5418
101301.2844
101299.1354
101279.4497
101285.1522
101309.1949
101303.3137
101281.7155
101283.1112
101300.1798
101299.5101
101283.9137
101275.7103
101288.9604
101301.6972
101299.6782
101292.3082
101290.876
101294.7422
101301.5327
101300.0913
101301.3066
101303.0863
101287.2002
101284.3285
101301.611
101305.7087
101293.3407
101285.9395
101295.5063
101302.5414
101290.4881
101273.1004
101280.7081
101297.639
101299.3635
101288.3107
101282.886
101289.4018
101307.298
101308.0007
101297.9798
101300.3963
101298.3572
101292.2854
101291.9176
101301.7147
101303.0496
101288.9681
101287.8747
101301.2225
101298.3507
101278.5805
101275.4575
101288.5101
101294.3879
101287.6194
101283.8334
101290.1384
101304.7179
101307.4936
101294.9919
101293.6862
101307.7701
101305.4052
101289.4507
101296.6657
101303.6552
101290.189
101283.2586
101296.3155
101303.4602
101290.0024
101278.4112
101279.3243
101286.6573
101289.3507
101291.4735
101295.0215
101297.9935
101301.4103
101293.4364
101290.3225
101309.639
101312.7443
101296.223
101293.5905
101297.6271
101291.7271
101284.4253
101289.7239
101301.7515
101300.1909
101287.3254
101276.083
101280.3514
101290.6127
101298.7968
101299.9331
101294.7837
101298.1659
101294.2105
101293.3286
101304.7186
101309.8682
101305.448
101295.5257
101294.2986
101297.1547
101290.9388
101284.2781
101294.2685
101305.0648
101298.2989
101279.759
101278.3464
101290.4307
101301.3334
101301.719
101299.1327
101299.8237
101297.9776
101304.3656
101299.5241
101300.8797
101307.5014
101299.1311
101297.0449
101304.7601
101300.7679
101284.4417
101285.0595
101303.0163
101304.8511
101286.7417
101280.8198
101290.3144
101299.7136
101300.7343
101306.8583
101301.8554
101301.0381
101316.6129
101298.5119
101290.8252
101303.0263
101302.7547
101303.7518
101309.9525
101306.75
101289.2295
101283.6572
101297.109
101304.7989
101293.7755
101287.6734
101292.1666
101296.7309
101299.5257
101307.5827
101301.8184
101301.2766
101305.1334
101297.9218
101297.2376
101300.9623
101301.2467
101303.0823
101304.8751
101303.5107
101294.9739
101291.2332
101297.8266
101301.7777
101298.8189
101296.9302
101296.4955
101296.456
101299.7625
101295.3669
101280.6305
101283.529
101284.2775
101283.2293
101279.921
101293.2774
101303.1096
101293.1638
101305.1443
101332.8231
101332.0094
101322.2807
101325.9146
101344.9583
101345.0176
101321.6057
101301.647
101302.21
101301.8298
101297.2562
101287.214
101299.0675
101298.9913
101276.557
101280.9027
101305.3562
101308.1373
101295.3651
101301.4724
101327.5925
101331.5043
101318.1888
101317.538
101328.9606
101330.7706
101319.6829
101308.1921
101308.6629
101304.441
101294.4876
101289.409
101302.6957
101299.8834
101274.2973
101286.5459
101308.4248
101304.6124
101296.9663
101301.1797
101321.4982
101332.1151
101322.1379
101315.6604
101314.8218
101317.3808
101318.7849
101315.6072
101313.4787
101305.9684
101290.3066
101288.0653
101288.0815
101283.0703
101281.6839
101297.4708
101294.0319
101289.7959
101305.9434
101311.5303
101315.3856
101329.8209
101336.0285
101325.7636
101310.1179
101310.2572
101320.4361
101320.9588
101314.0303
101304.1734
101295.2449
101296.0682
101276.2268
101270.6924
101292.4236
101302.1089
101278.5777
101280.8102
101317.5189
101321.7627
101306.6425
101320.0979
101343.6657
101337.3209
101314.6764
101310.7776
101321.7009
101320.7732
101308.0336
101298.8487
101309.039
101311.5711
101274.868
101272.5512
101302.1798
101297.4689
101263.6253
101281.5993
101328.2981
101330.3769
101297.8428
101293.7924
101333.9356
101340.41
101324.7562
101315.6577
101320.8769
101314.8967
101299.4196
101293.6454
101316.6829
101317.1394
101283.4009
101284.3436
101304.1295
101293.3874
101257.2673
101282.6822
101332.4025
101333.2994
101295.2795
101282.8845
101321.3919
101337.3612
101327.4472
101316.3776
101316.4443
101308.6931
101296.5903
101293.4863
101310.2248
101305.7099
101294.0847
101294.5796
101297.764
101292.2815
101267.5227
101286.6197
101325.4249
101333.8727
101305.9342
101290.2345
101311.0051
101329.4064
101322.2085
101311.8637
101309.6431
101305.3192
101301.0811
101299.0096
101292.715
101285.8055
101298.4904
101297.1695
101288.7327
101293.4725
101289.7788
101293.6044
101307.064
101322.3357
101318.8528
101300.5891
101302.9274
101316.4303
101313.9429
101306.6034
101305.5751
101305.8357
101307.9775
101305.7273
101279.3923
101274.5189
101298.3035
101295.0796
101282.5262
101292.7405
101308.8249
101302.9977
101287.6123
101302.5342
101322.5961
101303.9606
101294.3809
101301.2218
101304.9262
101303.4528
101305.7644
101307.6223
101311.4182
101308.0752
101282.1189
101280.3567
101296.3904
101295.5539
101282.0787
101292.0698
101318.0358
101313.8067
101284.1061
101288.2708
101313.7575
101306.4841
101298.2307
101293.2728
101296.6668
101302.7312
101307.8941
101307.0326
101306.7342
101303.7838
101296.1224
101298.7563
101296.0427
101299.4188
101290.5272
101292.9648
101311.2961
101318.4852
101299.149
101286.9509
101295.3428
101309.1145
101313.6226
101295.3028
101290.6765
101301.4347
101308.2328
101302.3579
101295.9555
101295.0886
101309.4146
101312.9226
101296.7023
101301.4631
101304.8037
101298.7207
101293.3756
101312.7887
101322.047
101298.4234
101279.5412
101309.7359
101324.8246
101299.9132
101284.9057
101296.4804
101304.9206
101296.4727
101286.6233
101289.2017
101309.6516
101313.7716
101299.9214
101299.9111
101313.5023
101308.368
101281.8822
101303.5449
101331.8526
101306.1031
101278.5804
101307.5372
101322.3217
101299.5084
101281.877
101288.6611
101298.522
101293.0187
101286.1619
101290.2893
101298.5962
101304.6637
101303.7492
101295.8987
101312.9874
101317.0716
101287.9879
101296.835
101319.6885
101304.8015
101288.4915
101302.2166
101308.757
101296.5713
101284.7403
101283.236
101291.0764
101292.64
101293.7911
101297.2983
101289.8127
101293.0664
101302.9134
101298.4341
101307.3862
101312.5678
101304.73
101298.2202
101297.2186
101298.2793
101299.5624
101294.7823
101292.0771
101294.7867
101293.7727
101284.3666
101284.6325
101292.1812
101301.8333
101303.9825
101293.2973
101290.2884
101297.5409
101309.5803
101302.9228
101300.2841
101317.6718
101306.1622
101284.0526
101296.1232
101309.3912
101290.0063
101281.0792
101295.6095
101304.2449
101290.6544
101280.5974
101288.4937
101303.6985
101305.7713
101305.2831
101296.6053
101294.1804
101320.4447
101304.9379
101291.3339
101317.2125
101311.2093
101288.1404
101302.9324
101314.7611
101290.2141
101278.7263
101298.2134
101311.3047
101296.7777
101279.2771
101284.0919
101300.1073
101303.3515
101317.2377
101302.2794
101293.5057
101329.6889
101309.1926
101286.0172
101303.0961
101312.9529
101303.6524
101310.766
101312.7397
101294.1414
101284.635
101299.6593
101311.2566
101300.4749
101283.8131
101285.1508
101295.1806
101299.8041
101314.5761
101301.8884
101296.2325
101312.1081
101304.8239
101293.8363
101298.0903
101305.8484
101305.2287
101305.5438
101304.0339
101296.9994
101294.4076
101299.8602
101305.2183
101302.009
101293.8506
101292.3758
101295.1965
101299.0692
101283.8549
101276.0691
101286.255
101280.2323
101313.632
101322.8859
101283.4001
101330.6418
101379.0203
101327.6436
101289.4081
101339.0363
101381.7555
101349.2245
101306.0286
101326.4793
101340.3809
101321.6205
101306.2662
101300.7047
101301.6859
101301.868
101308.4425
101313.3932
101286.4664
101287.3355
101309.9509
101336.5628
101331.0183
101311.7727
101316.9637
101345.8341
101357.8916
101340.7022
101324.4238
101330.3086
101331.8239
101313.9515
101304.1861
101300.2754
101308.5411
101313.2737
101314.4989
101324.6763
101275.8037
101278.3854
101326.7666
101325.6858
101292.2063
101313.3946
101354.4748
101343.5363
101329.0657
101335.8989
101347.0171
101331.5871
101321.2651
101310.0796
101306.1901
101301.7639
101298.1993
101304.008
101300.4251
101305.4995
101290.2767
101307.3844
101328.9353
101300.8775
101277.3202
101339.3126
101390.8092
101335.4428
101303.7944
101333.1604
101360.4872
101329.5991
101313.5732
101312.7788
101312.4779
101305.2427
101294.3322
101297.3735
101284.5159
101283.4145
101310.0671
101335.8272
101316.2753
101275.4104
101287.3486
101364.5894
101398.0598
101328.14
101294.5586
101338.2942
101367.5851
101325.4974
101309.2821
101316.9114
101316.4179
101306.5781
101299.9978
101299.1946
101276.7357
101278.3634
101317.2313
101337.9837
101292.9182
101252.1746
101297.2655
101373.5787
101381.3321
101321.9278
101290.5378
101343.2763
101371.0682
101323.9396
101308.4498
101316.9534
101315.0678
101303.8978
101305.87
101300.265
101284.7172
101292.818
101312.2362
101323.791
101283.4735
101248.9204
101294.4925
101368.6373
101365.2995
101307.6192
101285.8203
101342.0527
101372.2535
101324.1495
101308.6723
101312.9778
101309.0633
101300.3259
101303.5773
101292.6563
101302.0847
101312.9906
101300.0403
101307.4566
101298.5503
101270.0948
101288.6105
101371.433
101358.1106
101302.2079
101286.1419
101338.9521
101368.6018
101322.2838
101307.3858
101307.4928
101303.8196
101298.4783
101290.6474
101285.2829
101310.8085
101320.4285
101287.2596
101295.7293
101321.9662
101297.3736
101285.2977
101348.2256
101368.6296
101326.667
101295.9837
101334.1495
101356.1001
101316.5479
101306.3423
101305.4253
101303.3006
101299.188
101283.6559
101287.3647
101301.772
101311.8515
101285.6994
101292.3546
101329.6808
101312.668
101284.1393
101311.5379
101359.3937
101332.8042
101304.2057
101326.1242
101335.8114
101307.6032
101305.9403
101308.0324
101306.231
101301.5125
101293.3791
101302.7959
101285.9892
101298.8969
101295.6693
101298.2601
101315.844
101314.8551
101295.2197
101303.7682
101334.6072
101326.0147
101311.3446
101316.7498
101315.3013
101297.9496
101305.8666
101311.8923
101308.2239
101301.7758
101311.2454
101322.4721
101277.7921
101290.2322
101311.6975
101309.6742
101289.8929
101302.0092
101314.2678
101314.6342
101313.3055
101314.3253
101316.5743
101315.6851
101304.7479
101290.5545
101303.4408
101312.3105
101306.4708
101299.1096
101318.2591
101325.6084
101283.9926
101289.1667
101328.1058
101326.216
101267.0481
101280.4345
101334.0505
101337.5105
101296.7146
101289.5289
101317.3121
101324.8816
101307.7133
101288.108
101298.3903
101307.7796
101302.2259
101296.6086
101305.9026
101310.6124
101299.45
101294.0666
101325.831
101337.8264
101270.9282
101271.0649
101341.2455
101351.0234
101286.1551
101265.3017
101310.1833
101337.3822
101314.5624
101287.8223
101291.1382
101300.3559
101299.348
101297.0169
101285.4822
101289.9206
101312.4015
101300.441
101306.3348
101332.3749
101301.3516
101286.9498
101329.6546
101340.4878
101292.9653
101266.1438
101297.6575
101331.0047
101314.0866
101290.1786
101287.0564
101294.3194
101299.376
101300.5048
101280.1169
101275.2658
101314.1718
101314.9792
101291.1263
101309.1801
101329.4991
101316.9221
101307.3354
101311.62
101306.5939
101289.8653
101292.3894
101306.0569
101301.9347
101294.616
101288.747
101290.453
101299.5447
101303.8915
101296.7176
101277.3171
101302.1549
101332.1362
101295.6112
101283.9771
101331.9389
101337.0063
101291.398
101282.5863
101316.8733
101321.0805
101294.4024
101276.681
101286.744
101304.2484
101297.6423
101289.1613
101296.8493
101303.4471
101312.3227
101292.7993
101289.7478
101331.9362
101313.0718
101275.9519
101312.6981
101334.4301
101286.708
101267.2501
101316.5092
101342.3612
101299.3609
101257.682
101279.2161
101314.2494
101308.572
101290.0492
101291.4799
101299.5699
101317.955
101305.3342
101286.0453
101322.9836
101326.8105
101281.9463
101286.3232
101322.2175
101296.266
101272.0154
101309.1421
101344.7446
101305.6901
101260.7353
101283.0068
101315.6763
101312.5212
101293.6769
101289.9296
101296.8445
101310.4641
101301.5047
101292.4936
101313.489
101315.6777
101291.1735
101289.0576
101310.1511
101302.2482
101292.7291
101302.4766
101317.7096
101306.3538
101282.5834
101290.3306
101308.0475
101308.1879
101297.4822
101293.6053
101297.8351
101275.9646
101278.4696
101289.7241
101271.5369
101346.3146
101385.9821
101282.8959
101303.707
101356.2826
101334.9392
101333.73
101361.2293
101367.4657
101341.9311
101300.3127
101301.9382
101349.6044
101345.5954
101317.4716
101302.5363
101305.3589
101316.107
101292.942
101302.8775
101307.8026
101308.9122
101290.4791
101328.0192
101369.3629
101357.6125
101336.549
101354.5902
101376.0524
101361.6833
101332.6194
101323.2251
101330.4686
101324.1966
101308.6918
101299.1522
101319.4727
101332.3737
101299.3361
101329.5132
101291.0414
101273.1267
101312.8777
101346.747
101376.6862