/*--------------------------------*- C++ -*----------------------------------*\
| =========                 |                                                 |
| \\      /  F ield         | OpenFOAM: The Open Source CFD Toolbox           |
|  \\    /   O peration     | Version:  5.x                                   |
|   \\  /    A nd           | Web:      www.OpenFOAM.org                      |
|    \\/     M anipulation  |                                                 |
\*---------------------------------------------------------------------------*/
FoamFile
{
    version     2.0;
    format      ascii;
    class       volScalarField;
    location    "0.8";
    object      rho;
}
// * * * * * * * * * * * * * * * * * * * * * * * * * * * * * * * * * * * * * //

dimensions      [1 -3 0 0 0 0 0];

internalField   nonuniform List<scalar> 
30538
(
1.287755389
1.289874384
1.289811671
1.289681919
1.289539771
1.289479736
1.289516764
1.289620821
1.289755647
1.289874453
1.289961903
1.290016324
1.29005155
1.290075802
1.290068943
1.289997998
1.289859455
1.289721634
1.289648914
1.290102625
1.287772782
1.289860874
1.289795942
1.289667462
1.289527895
1.28947039
1.289510102
1.289616973
1.289753344
1.289873558
1.289962881
1.290019261
1.290056414
1.290080727
1.290072582
1.290001734
1.289867912
1.289736157
1.289665248
1.290101703
1.28780322
1.289827834
1.289758648
1.289634024
1.289502108
1.289450427
1.289494459
1.289605455
1.289744006
1.28986654
1.289959698
1.290020087
1.290060551
1.290084724
1.290074342
1.290005219
1.289881318
1.289760938
1.289692189
1.290096773
1.287847558
1.289778352
1.289703151
1.289585993
1.289468788
1.289427102
1.289476084
1.289590483
1.289730966
1.289856458
1.28995573
1.290022134
1.290066455
1.290090416
1.290077926
1.290014035
1.289905028
1.289799917
1.289732582
1.290089349
1.287906161
1.289716253
1.289634235
1.289527192
1.289430909
1.289402679
1.289456832
1.289572961
1.289714738
1.289844374
1.289951758
1.290026341
1.290074989
1.29009882
1.290085916
1.290030779
1.289941138
1.289852266
1.289783501
1.290077557
1.287974949
1.289650126
1.289560659
1.289464917
1.289391959
1.289377141
1.289436634
1.289553648
1.289696395
1.28983148
1.28994796
1.290031537
1.29008502
1.290110229
1.290101133
1.290056659
1.289988015
1.289912539
1.289839377
1.29006324
1.288056706
1.289591043
1.289493089
1.289406438
1.289353106
1.289350124
1.28941422
1.289532269
1.289676962
1.28981812
1.289943264
1.290035709
1.290095476
1.290124124
1.29012171
1.290091271
1.290040324
1.289973022
1.289892952
1.290045608
1.288145829
1.289549842
1.28944375
1.289360699
1.289320119
1.289325699
1.289391952
1.289509751
1.289656865
1.289803051
1.289934736
1.290034478
1.290101071
1.290135949
1.29014259
1.290125717
1.290088209
1.290025209
1.289935973
1.290025788
1.288247966
1.289534506
1.289424648
1.289342095
1.289304834
1.289312239
1.289377267
1.289492515
1.289637946
1.289785189
1.289918481
1.290022481
1.290095728
1.290138942
1.290155739
1.290149613
1.290120116
1.290058472
1.289961745
1.290005653
1.288350346
1.289546841
1.289438656
1.289355524
1.289314779
1.289318427
1.289377778
1.289485033
1.289622002
1.289763286
1.289892411
1.289996429
1.290075089
1.29012743
1.290154261
1.290156321
1.290130728
1.290068678
1.289967543
1.289984944
1.288465439
1.289582254
1.289482547
1.289399822
1.289352878
1.289348611
1.289397191
1.289489754
1.289610805
1.289737869
1.289857043
1.289957317
1.290039
1.290099094
1.290134273
1.290141815
1.290117865
1.290055796
1.289955421
1.289966442
1.288580462
1.289630225
1.289544332
1.289465097
1.289412606
1.289398663
1.289432697
1.289505373
1.289603617
1.289710676
1.289815394
1.289909476
1.289992373
1.290058406
1.29009975
1.290110073
1.290085967
1.290024625
1.289929826
1.289951022
1.288703422
1.289677115
1.289607075
1.289535443
1.289481517
1.289459427
1.289478088
1.289527614
1.289600542
1.289684636
1.289773434
1.289860633
1.289943706
1.290014036
1.290059787
1.290070334
1.290043944
1.289983378
1.289896925
1.289931595
1.288829195
1.289711939
1.289656977
1.289595907
1.289546052
1.289520384
1.289525806
1.289553368
1.289601077
1.289663107
1.289737156
1.289817973
1.289900815
1.289973858
1.290021644
1.290030183
1.289999506
1.289939448
1.289862381
1.289916237
1.288960164
1.289730934
1.289688786
1.289640484
1.289599588
1.289575214
1.289571361
1.289579832
1.289605866
1.289648933
1.289710622
1.289786282
1.289868832
1.289943227
1.28999093
1.289995414
1.289958175
1.289897162
1.289829192
1.289893639
1.289097925
1.289734272
1.28970239
1.289668584
1.289640365
1.289621491
1.28961278
1.289608041
1.289617168
1.289645372
1.289696904
1.289768036
1.289849034
1.289921601
1.289966198
1.289965158
1.289920218
1.28985816
1.289799539
1.289875872
1.289235176
1.289731252
1.289707049
1.289686265
1.289671269
1.289660132
1.289649547
1.289637916
1.289636448
1.28965421
1.289695933
1.289759749
1.289834091
1.289900643
1.289939529
1.289933509
1.289885557
1.289825916
1.289776439
1.289846649
1.289384743
1.289730121
1.289712396
1.28970162
1.289696965
1.289692305
1.289683058
1.289670166
1.28966423
1.289675022
1.289706707
1.289757703
1.289818423
1.289872852
1.289903754
1.289896368
1.289852779
1.28980122
1.289762705
1.289826599
1.289525726
1.289735875
1.289723985
1.289719269
1.289719438
1.289718751
1.289712942
1.289703965
1.289699226
1.289705413
1.289725119
1.289758519
1.289798794
1.289834693
1.289855653
1.289849406
1.289819076
1.289782843
1.289758166
1.289793997
1.289407308
1.289426202
1.288935577
1.28893697
1.288581604
1.288661383
1.28850526
1.288651766
1.288702738
1.288870851
1.289061899
1.289176425
1.289449274
1.289445042
1.289781857
1.289643995
1.290003272
1.289712075
1.290021487
1.289639669
1.287388848
1.289803875
1.289743261
1.289647758
1.289558008
1.289536279
1.289584724
1.289665837
1.289762149
1.289859919
1.289952949
1.2900245
1.2900655
1.290068138
1.290020449
1.289934587
1.28982327
1.28972887
1.289688936
1.290372264
1.287404839
1.289795491
1.289733626
1.289638678
1.289550289
1.289528904
1.289577289
1.289660091
1.289758722
1.289858176
1.28995319
1.290026292
1.290067867
1.290071028
1.290024643
1.289939941
1.289830846
1.289738595
1.289698839
1.290373432
1.287433971
1.289773045
1.289708524
1.289615398
1.28953139
1.289511539
1.289559745
1.289644899
1.289747165
1.289849633
1.289947918
1.290023641
1.290066632
1.290071357
1.290028116
1.289946851
1.289842914
1.289754831
1.289714273
1.290371944
1.287477062
1.28973956
1.289671092
1.289581727
1.28950652
1.289490341
1.289538659
1.289625689
1.289731579
1.289837538
1.289939846
1.290018534
1.290064585
1.290072422
1.290034527
1.289960084
1.289864817
1.289782502
1.289739104
1.29036853
1.287534651
1.289698246
1.289624309
1.289540456
1.289477776
1.289467654
1.28951678
1.289604806
1.289713597
1.28982303
1.289929644
1.290011747
1.290061019
1.290074432
1.290045159
1.289981528
1.289898184
1.289822306
1.289773373
1.290361841
1.28760523
1.289654018
1.289573557
1.289496569
1.289447732
1.289444453
1.289494847
1.2895835
1.289694522
1.289807194
1.289917506
1.290003902
1.290058238
1.290078683
1.290061143
1.290011022
1.289941174
1.289870996
1.289814047
1.290350189
1.28768941
1.289613336
1.289526415
1.289454493
1.289417648
1.289420941
1.289472638
1.28956218
1.289675019
1.289790475
1.289903933
1.28999445
1.290055132
1.290084093
1.290079947
1.290045279
1.289988849
1.289922668
1.289855656
1.290335947
1.287785623
1.28958328
1.289490725
1.289422127
1.289392849
1.289400326
1.289452125
1.289541444
1.289655382
1.289772596
1.289888274
1.28998228
1.290049753
1.29008818
1.290097046
1.290077132
1.290032966
1.289968422
1.289891787
1.290314706
1.287896487
1.289570091
1.289475864
1.289407707
1.289380578
1.289388546
1.289438087
1.289524771
1.289636204
1.289754164
1.289869525
1.289965683
1.290039166
1.290086609
1.290107218
1.290099271
1.290063775
1.290000407
1.289916343
1.290293324
1.288014524
1.289575196
1.289483005
1.289415243
1.289386309
1.289391171
1.28943542
1.289515475
1.28962022
1.289735101
1.289846811
1.289942931
1.290020462
1.29007523
1.29010483
1.290105202
1.290075208
1.290013533
1.289926038
1.290262691
1.288148723
1.289596378
1.289510048
1.289443609
1.289410883
1.289410153
1.289446371
1.289515746
1.289609775
1.289715818
1.289820614
1.289914136
1.28999322
1.290052539
1.29008732
1.290092135
1.290065639
1.290006544
1.289920826
1.290234456
1.288290409
1.289627071
1.289549486
1.289485442
1.289448814
1.289441983
1.28946901
1.289525215
1.289604778
1.289697508
1.289792677
1.289881642
1.289960369
1.290021521
1.290057785
1.290063671
1.290038276
1.289982726
1.289903376
1.290197743
1.288442843
1.289658594
1.289590416
1.289530079
1.289491438
1.289480205
1.2894992
1.289541272
1.289604771
1.289681814
1.2897662
1.289849527
1.289926798
1.289987653
1.290022669
1.290026662
1.290000391
1.28994847
1.289878377
1.29015925
1.28860211
1.289682815
1.289623298
1.289568696
1.289531857
1.289519578
1.289532771
1.289561798
1.289609374
1.289670845
1.289743918
1.289821575
1.289896526
1.289955418
1.289987143
1.289987248
1.289958743
1.289910037
1.289850418
1.29011531
1.288768392
1.289696705
1.289644815
1.289597548
1.289566782
1.289557347
1.289567122
1.289585762
1.28961886
1.289666064
1.289728571
1.289800498
1.289872106
1.289927949
1.289955336
1.28994958
1.289917763
1.289871883
1.289822789
1.290068079
1.288942635
1.289702066
1.289656641
1.289618968
1.289596791
1.289592307
1.289600758
1.289612291
1.289633362
1.289668495
1.289721522
1.289787366
1.289855076
1.28990583
1.289927387
1.289915023
1.289879607
1.289836904
1.289797984
1.29001819
1.289116821
1.289704778
1.289666272
1.28963895
1.289626662
1.28962789
1.289635888
1.289641681
1.289653691
1.289679163
1.289722365
1.289779579
1.28983896
1.289882771
1.289898857
1.289882596
1.28984676
1.289808102
1.289778313
1.289961922
1.289300595
1.289711397
1.289680946
1.28966319
1.289658823
1.289663683
1.289670828
1.289673322
1.289679438
1.289697121
1.289729865
1.289774795
1.289821741
1.289855822
1.289866898
1.289850956
1.289819722
1.289787977
1.289766556
1.289908347
1.289477115
1.28972572
1.289704984
1.289694942
1.289694289
1.289699751
1.289704899
1.289706699
1.289710186
1.28972126
1.289741427
1.289770353
1.289800988
1.289823034
1.289830642
1.289818887
1.289798159
1.289775954
1.289762733
1.289846103
1.289301113
1.289386556
1.288723425
1.288782914
1.288285681
1.288440491
1.288203891
1.288444097
1.28849359
1.28875105
1.289007669
1.289179726
1.289558679
1.289560384
1.290014513
1.289794552
1.290249309
1.289792522
1.290189297
1.289611887
1.28681845
1.289741366
1.289705192
1.28966317
1.28963616
1.289634057
1.289659248
1.289680643
1.289723205
1.289800875
1.289917607
1.290033323
1.290096378
1.29007816
1.289978916
1.289862298
1.289772089
1.289721236
1.289721829
1.290872514
1.286833274
1.289737576
1.289698914
1.289655508
1.289628512
1.289626088
1.289650659
1.289674639
1.289720844
1.289801095
1.289918088
1.290033094
1.290095811
1.29007938
1.289983911
1.289870265
1.289780455
1.289728438
1.289726737
1.290875537
1.286857926
1.289725072
1.2896817
1.289635935
1.289609364
1.289606703
1.289630557
1.289659026
1.289711525
1.289795833
1.289912918
1.290026134
1.290088648
1.290076336
1.289989224
1.289882399
1.289793838
1.289739685
1.289732876
1.2908807
1.286899548
1.289707684
1.289657889
1.28960936
1.289583834
1.289581498
1.289605587
1.289639569
1.289699185
1.289787506
1.289903461
1.290013567
1.290076923
1.290071774
1.28999823
1.289902816
1.289817527
1.28976028
1.289745175
1.290882452
1.286954856
1.289686784
1.289629678
1.289578569
1.289554789
1.289553724
1.289579564
1.289619318
1.289685156
1.289776103
1.289889036
1.289994654
1.290060726
1.29006589
1.290011203
1.289931139
1.28985242
1.289791775
1.289765195
1.290884403
1.28703023
1.28966388
1.289599722
1.28954657
1.289524997
1.289526446
1.289555204
1.2896002
1.289670396
1.289761891
1.289870099
1.289970543
1.290039582
1.290058119
1.290026286
1.289964885
1.289894891
1.289831911
1.28979211
1.290877979
1.28711974
1.289641707
1.289571052
1.289516934
1.28949786
1.289501967
1.289533401
1.289582938
1.289655238
1.289745169
1.289848196
1.289944772
1.290017044
1.290049634
1.290040193
1.289999172
1.289939406
1.289875661
1.289822725
1.290865427
1.287227912
1.28962318
1.289548193
1.289494152
1.289476792
1.289482594
1.289515302
1.289566747
1.289639379
1.28972672
1.289824965
1.289918901
1.289995046
1.290040469
1.290050847
1.290028289
1.289979268
1.289916589
1.289851798
1.290845207
1.287354262
1.289612045
1.289535542
1.289481855
1.289465393
1.289471037
1.289502455
1.289552935
1.289623673
1.289708341
1.289802904
1.289895289
1.289974463
1.29002995
1.290055323
1.290047333
1.290008074
1.289947801
1.289874544
1.29081257
1.287492837
1.289609454
1.289534283
1.289481287
1.289464859
1.289468609
1.289496395
1.289543139
1.289610118
1.289691734
1.28978455
1.289875394
1.28995615
1.290017485
1.290051312
1.290052254
1.290020307
1.289962929
1.289887399
1.290772178
1.28766022
1.289614964
1.289542928
1.289491158
1.289473553
1.289474803
1.289498124
1.289539692
1.28960167
1.289679561
1.289770863
1.289860004
1.289940858
1.290002984
1.290038583
1.290042083
1.290014037
1.289960302
1.289888189
1.290714764
1.287832199
1.289625852
1.289557733
1.2895073
1.289487628
1.289487101
1.289506907
1.289543479
1.289600029
1.289674275
1.289761499
1.289848896
1.289928245
1.289986995
1.290018021
1.290018784
1.289990773
1.289941564
1.289877266
1.29065056
1.28803637
1.289638691
1.289573989
1.289525336
1.289503993
1.289503281
1.28952178
1.289554376
1.289606137
1.289674755
1.289757096
1.289841413
1.28991721
1.289969352
1.289991845
1.289985572
1.289955669
1.289911079
1.289857342
1.290564021
1.288236258
1.289650997
1.289589305
1.289543086
1.289521716
1.289522795
1.289542208
1.289571905
1.289618791
1.289680711
1.289756852
1.289836325
1.289906168
1.289949364
1.289961537
1.28994644
1.28991447
1.289875013
1.289833125
1.290482163
1.28846601
1.289661484
1.289603249
1.289560522
1.289542031
1.289546441
1.289568123
1.289595658
1.289637178
1.289692115
1.289760027
1.289832233
1.28989376
1.289926644
1.28992821
1.289904695
1.289872277
1.289839065
1.289809086
1.290374413
1.288685437
1.289671376
1.289617806
1.289580606
1.289567136
1.289575412
1.289598506
1.289624078
1.289659492
1.289706692
1.289765178
1.289827384
1.289878854
1.2899015
1.289893905
1.28986408
1.289833196
1.289807218
1.289788859
1.290281876
1.28892821
1.289682646
1.289635656
1.289605921
1.289599039
1.289610372
1.289633017
1.289655646
1.289684354
1.289722334
1.289770094
1.28982004
1.289859184
1.289872109
1.28985878
1.289827627
1.289801265
1.289783345
1.289774437
1.290160171
1.289156601
1.289699174
1.289661885
1.28964054
1.289638479
1.289650246
1.289669527
1.289687511
1.289708906
1.289736774
1.289772087
1.28980911
1.289836126
1.289841846
1.289827188
1.289800177
1.289780542
1.289769707
1.289766791
1.290060975
1.289401892
1.289721605
1.289696441
1.289682974
1.289682601
1.289691767
1.289705275
1.289717883
1.289731779
1.289749128
1.289770758
1.289793186
1.289809078
1.289811404
1.289801502
1.289783579
1.289772089
1.289765569
1.289764793
1.289930211
1.289251746
1.289183235
1.288505393
1.288391729
1.287946073
1.287974291
1.287864458
1.288073504
1.28826626
1.288578824
1.28895321
1.289250819
1.289700333
1.28985137
1.290298043
1.290191955
1.29052747
1.290099334
1.290319843
1.289738602
1.28558964
1.289738449
1.289747516
1.289755287
1.289759218
1.289730488
1.289678548
1.289618159
1.28960832
1.2896788
1.289833798
1.290005999
1.290111317
1.290102023
1.289988403
1.289859037
1.289776633
1.289747935
1.289763704
1.291825356
1.285597789
1.289734198
1.289737888
1.289741158
1.289743828
1.289717193
1.289669954
1.289616117
1.289611707
1.289684867
1.289838392
1.290007402
1.290110928
1.290103532
1.289994747
1.289869221
1.289786652
1.289754346
1.289766314
1.291843658
1.285610457
1.289721783
1.289715617
1.289710553
1.289710401
1.289687715
1.289649344
1.289607705
1.289613174
1.289690577
1.289840407
1.290002839
1.290103207
1.290100395
1.290002181
1.289885076
1.289802828
1.289764495
1.28976813
1.291875369
1.285636568
1.289706373
1.289687385
1.289671187
1.289666666
1.289648777
1.289622467
1.289596893
1.28961499
1.289696295
1.289839333
1.289992021
1.290088645
1.290094023
1.290012757
1.2899093
1.289829064
1.289783727
1.289775426
1.291912129
1.285678099
1.289690041
1.289657237
1.289628881
1.289619218
1.289606337
1.289593476
1.289585525
1.2896165
1.289699695
1.289832449
1.289972872
1.290066083
1.290083141
1.29002473
1.289939586
1.289864879
1.289812086
1.289789219
1.291951312
1.285745156
1.289674155
1.289628294
1.289589364
1.289575031
1.289567145
1.289567277
1.28957599
1.289616529
1.289698962
1.28981831
1.289944732
1.290035308
1.290066449
1.290034603
1.289971667
1.289905812
1.28984817
1.289809681
1.291976215
1.285838598
1.289659701
1.289603223
1.289556312
1.289538446
1.289534973
1.28954606
1.289567094
1.289613146
1.289692003
1.289797523
1.289909892
1.289999236
1.290044074
1.290038514
1.290000408
1.28994612
1.289886867
1.289834398
1.291989223
1.285965205
1.289647806
1.28958429
1.289532914
1.289513166
1.289512586
1.289529642
1.289557643
1.289605432
1.289679417
1.289773489
1.289875648
1.289965051
1.290022313
1.290038275
1.29002236
1.28998032
1.289922336
1.289859577
1.291970307
1.286124622
1.289638875
1.289571878
1.289519137
1.289499169
1.289499459
1.289517962
1.289547787
1.289594778
1.289663617
1.289750482
1.289846624
1.289936479
1.290002412
1.290034806
1.290035579
1.290004607
1.289949559
1.289880408
1.291930714
1.286318903
1.289633017
1.289565402
1.289513391
1.289494391
1.28949386
1.289510755
1.289538856
1.289583707
1.289649393
1.289733459
1.289826676
1.289916948
1.289988345
1.290029799
1.290039264
1.290015497
1.289963953
1.289892108
1.291843968
1.286554717
1.28962968
1.289563291
1.289513325
1.289495858
1.289494211
1.289508704
1.289533996
1.289577103
1.289641655
1.289725746
1.289819319
1.289910187
1.289981924
1.290023954
1.2900333
1.290010895
1.289961923
1.289891759
1.291738843
1.286815867
1.289628053
1.289564043
1.289517038
1.289501781
1.289500178
1.289513237
1.289536646
1.289579077
1.289643496
1.289729109
1.289824346
1.289914291
1.289981185
1.290015577
1.290017059
1.289990193
1.289942243
1.289878826
1.291581916
1.287115256
1.289628937
1.289568101
1.289524708
1.289512349
1.289512455
1.289525986
1.289549113
1.289591589
1.289656142
1.289742722
1.289837222
1.289923328
1.289980728
1.290001672
1.289990293
1.289955552
1.289909188
1.289856348
1.291416807
1.287429634
1.289634164
1.28957759
1.289538926
1.289528887
1.289532501
1.289547836
1.289571829
1.28961431
1.289678358
1.289762709
1.289853007
1.28993059
1.289974216
1.289978851
1.289953049
1.289913328
1.289870565
1.289829684
1.291209819
1.287776236
1.289645597
1.289593702
1.289560742
1.289553704
1.289560655
1.289578181
1.289602946
1.289645055
1.28970628
1.289785007
1.289866054
1.28993015
1.289956992
1.289945105
1.289908857
1.289868789
1.289833123
1.289805058
1.291006748
1.288118435
1.289662858
1.289617373
1.28959026
1.289586543
1.289595681
1.289614363
1.289639087
1.289679175
1.289735115
1.289804303
1.289871544
1.289918597
1.289928541
1.289903398
1.2898624
1.289826924
1.289802023
1.28978726
1.290781544
1.288487862
1.289684245
1.289647133
1.289626116
1.289625232
1.289634935
1.289653165
1.289675982
1.289711189
1.289758492
1.289815241
1.289865172
1.289894132
1.289889706
1.289857322
1.289817929
1.289792748
1.289780357
1.289777411
1.290559047
1.288838855
1.289707215
1.289679832
1.289665297
1.28966666
1.289675481
1.28969047
1.289709253
1.289736552
1.289772162
1.289813101
1.289847069
1.289861254
1.289849187
1.289817875
1.289786391
1.289771979
1.289769138
1.289772452
1.29033313
1.289215432
1.289731644
1.289713703
1.289704781
1.289704278
1.289710374
1.289719809
1.28973349
1.289751434
1.289774217
1.289799157
1.28981791
1.289823755
1.289813167
1.289792513
1.28977262
1.289766248
1.289766385
1.289770318
1.290101091
1.288865703
1.288990906
1.287710684
1.28777288
1.28684039
1.287142602
1.286779423
1.287341956
1.287553415
1.288194723
1.288793317
1.289306819
1.290106591
1.290266689
1.291114914
1.290701407
1.291394094
1.290379074
1.290895199
1.28964486
1.284202185
1.289775666
1.289837815
1.289868465
1.289861935
1.289777812
1.289637895
1.289505064
1.28945654
1.289520966
1.289700477
1.289913515
1.290070546
1.290110499
1.290037705
1.28993259
1.28985771
1.289824086
1.289814722
1.293107688
1.284202211
1.28976611
1.28981944
1.289843554
1.289836941
1.28975909
1.289631616
1.289510485
1.28947012
1.289537107
1.289713589
1.289921674
1.290074851
1.290115829
1.290046095
1.289944143
1.289869309
1.289832507
1.289819424
1.293142114
1.284190243
1.289744766
1.2897817
1.289793767
1.289785998
1.289719361
1.289614105
1.289514655
1.28948937
1.289560938
1.289731218
1.289929498
1.290075871
1.29011864
1.290056467
1.289961713
1.289887806
1.289845477
1.289823421
1.293222503
1.2841982
1.289719324
1.289735137
1.289731111
1.289720493
1.289667439
1.289589872
1.289519183
1.289513164
1.289590021
1.289750535
1.289934697
1.290072337
1.290117823
1.290068695
1.289985993
1.289915169
1.289866674
1.289832346
1.29330189
1.284211469
1.28969462
1.28968799
1.289666858
1.289651027
1.289612059
1.289562876
1.289523122
1.289536876
1.289617936
1.289765242
1.289932015
1.290059942
1.290109914
1.29007914
1.2900131
1.2899491
1.289894247
1.289846392
1.29340594
1.284267476
1.289673891
1.289646632
1.289609961
1.289588459
1.289561658
1.289537593
1.289526254
1.289556961
1.289638883
1.289770465
1.289918044
1.29003545
1.290092561
1.29008381
1.290038626
1.28998428
1.289925971
1.289865266
1.293474279
1.284353784
1.289658401
1.289614302
1.28956491
1.289538818
1.289521455
1.289518142
1.289527707
1.289569507
1.289649032
1.289764911
1.289893866
1.290001931
1.290065978
1.290078798
1.290057744
1.290015121
1.289957754
1.289886655
1.293523954
1.284492397
1.289647426
1.289591906
1.289534184
1.289505486
1.289494197
1.289503494
1.289525227
1.289572664
1.28964788
1.289749475
1.289862256
1.289964529
1.290037567
1.290069428
1.290069079
1.290039591
1.289985105
1.289906961
1.293520171
1.284688629
1.28963921
1.289577396
1.289516079
1.289486882
1.289478077
1.2894931
1.289519461
1.289567737
1.289637285
1.289729877
1.289834147
1.289934423
1.290013027
1.290059135
1.29007361
1.290054867
1.290004202
1.28992189
1.293454474
1.284929614
1.28963234
1.289568182
1.289507218
1.28948001
1.289472258
1.289487697
1.289513569
1.289558433
1.289623577
1.289712206
1.289813569
1.289913546
1.289996697
1.290051453
1.290072734
1.290059193
1.290011062
1.289927458
1.293335417
1.285253456
1.289626269
1.289562589
1.289505439
1.289482658
1.289475868
1.289488812
1.289510854
1.289552537
1.289614747
1.289702959
1.289805879
1.289907706
1.289992256
1.290048209
1.29006707
1.290051005
1.290002644
1.289920747
1.29313011
1.285594683
1.289621691
1.289561305
1.289510837
1.289494489
1.289489235
1.289499081
1.289516844
1.289555053
1.289617059
1.289706267
1.289812088
1.289915817
1.289997932
1.290046361
1.290054512
1.290029357
1.289978659
1.28990221
1.292890242
1.286029279
1.289621256
1.289566871
1.289525382
1.289516588
1.289513678
1.28952134
1.289535716
1.289571299
1.289632734
1.289723451
1.289830255
1.289932098
1.290005894
1.290039614
1.290032837
1.289995887
1.289943463
1.289876106
1.292565253
1.286446298
1.289628148
1.289582516
1.289551236
1.289549807
1.289549168
1.28955557
1.289567746
1.289601452
1.289661487
1.289751205
1.289854006
1.289946978
1.290006299
1.290020979
1.289999643
1.289955392
1.289904222
1.289848906
1.292241472
1.286961292
1.289645103
1.289610579
1.289589575
1.289593852
1.289594266
1.289599246
1.289609439
1.289641627
1.289698904
1.289783488
1.28987524
1.289951589
1.289990652
1.289986691
1.289955939
1.289911714
1.289867724
1.289825834
1.291847081
1.287420404
1.289671398
1.289647876
1.28963652
1.289643371
1.289642909
1.289645303
1.289654257
1.289684631
1.289737523
1.28981201
1.289886737
1.289941656
1.289959189
1.289940569
1.289906206
1.289869337
1.289837551
1.289809297
1.291491712
1.287970129
1.289701418
1.28968744
1.289683288
1.289689983
1.28968793
1.289688241
1.289695907
1.289722773
1.289767966
1.289828281
1.289883005
1.289914976
1.289913803
1.289886141
1.2898552
1.28983097
1.28981442
1.289799336
1.291078033
1.288443778
1.289728045
1.289721408
1.289721785
1.289727061
1.289723869
1.289722373
1.289728505
1.289749613
1.289784181
1.289827771
1.289862655
1.289875898
1.289864143
1.289836209
1.289812846
1.289801655
1.289797035
1.289791623
1.290723462
1.289001379
1.289748596
1.289745406
1.289745741
1.289746367
1.289742308
1.289740453
1.289745619
1.289760641
1.289783421
1.289809973
1.289828061
1.289831776
1.289820621
1.289801929
1.289788562
1.289785197
1.289785629
1.289783269
1.290312574
1.288714685
1.288429094
1.287086148
1.286688559
1.285879192
1.285870403
1.285861639
1.286395389
1.287012821
1.287817171
1.288737673
1.289547163
1.290522704
1.291042381
1.291866051
1.291741535
1.292139332
1.291167788
1.291240428
1.289973476
1.281814496
1.289792513
1.289880493
1.289898689
1.289865847
1.289748234
1.289577759
1.289427894
1.289365256
1.289410052
1.289560026
1.289759636
1.289939868
1.290045741
1.290074085
1.290052711
1.290009711
1.289956631
1.289894206
1.29534969
1.28178397
1.289778587
1.289857029
1.289870135
1.289839302
1.289730886
1.289577483
1.289442442
1.289389745
1.289438019
1.289585358
1.289779946
1.289954992
1.290057749
1.290085781
1.290065148
1.290021551
1.28996637
1.289902523
1.295449865
1.281713723
1.289749535
1.289810033
1.289813834
1.289785511
1.289694041
1.289570379
1.289462752
1.289428094
1.289482703
1.289625134
1.289809915
1.28997552
1.290073055
1.290100789
1.290081765
1.290038276
1.289980016
1.28991005
1.295645176
1.281650141
1.2897153
1.289752798
1.28974258
1.289716171
1.289646579
1.289559265
1.289486271
1.289473848
1.289536259
1.289672413
1.289844197
1.28999634
1.2900875
1.290115043
1.290100235
1.290059965
1.289998859
1.289920639
1.295885409
1.28158429
1.289682617
1.289695904
1.289669449
1.289643253
1.289595162
1.289544041
1.289507855
1.289519248
1.289589686
1.289718022
1.289874635
1.290012516
1.290098803
1.29012808
1.290118106
1.290081879
1.290019591
1.289932588
1.296160321
1.281581524
1.289656378
1.289647504
1.289605746
1.289578877
1.28954763
1.289528064
1.289524627
1.289556355
1.28963325
1.289753526
1.289893307
1.290017042
1.290098918
1.290132212
1.290130335
1.290099714
1.290038246
1.289944652
1.296377416
1.281627611
1.289638213
1.289611105
1.289556785
1.289528313
1.289510019
1.289513913
1.28953487
1.289581884
1.289661751
1.289772998
1.289896446
1.290007354
1.290085516
1.290124526
1.290133318
1.290110282
1.290052741
1.289954825
1.296549623
1.281774505
1.289626691
1.289586092
1.289522949
1.289493305
1.289483718
1.289502634
1.289537597
1.289593279
1.289671606
1.289774296
1.289885041
1.289985947
1.290063171
1.290110625
1.290129351
1.290114013
1.290061373
1.289961781
1.296582474
1.282013487
1.289618698
1.28956937
1.28950203
1.289472631
1.289467981
1.289494392
1.289534624
1.289592619
1.289667976
1.289762591
1.289864357
1.289961729
1.290041071
1.290095421
1.290120692
1.290110739
1.290062455
1.289963452
1.296513569
1.282360589
1.289612002
1.289557933
1.289491214
1.289465195
1.289463428
1.289491079
1.289529974
1.289584436
1.289655551
1.289743461
1.289842541
1.289940585
1.29002251
1.290081378
1.290109492
1.290101223
1.290054985
1.289957936
1.296269236
1.282822041
1.289606788
1.289552031
1.289490452
1.289470934
1.289470778
1.289495126
1.289527466
1.28957447
1.289639428
1.289725375
1.289825214
1.28992641
1.290011504
1.29007165
1.290097756
1.290086261
1.290039015
1.289945041
1.295923435
1.28336528
1.289604951
1.289553548
1.289501482
1.289490423
1.28949119
1.289509525
1.289532682
1.289570819
1.289629727
1.289714243
1.289816961
1.289920863
1.290008059
1.290065487
1.290084888
1.290066143
1.290015583
1.289926039
1.295399043
1.284018061
1.289609864
1.289565998
1.289526259
1.289524491
1.289525465
1.2895365
1.289549909
1.289579116
1.289631825
1.289714142
1.289816945
1.289920916
1.290005978
1.290056744
1.290067999
1.290040991
1.289988108
1.28990479
1.294830546
1.284699903
1.28962421
1.289591515
1.289565812
1.289572127
1.289571928
1.289574775
1.289579087
1.289601177
1.289648943
1.289726474
1.289824681
1.289922282
1.28999873
1.290040168
1.290043921
1.290012672
1.289960013
1.289885649
1.294123606
1.285477768
1.289649042
1.289629864
1.289617428
1.28962856
1.28962561
1.289620835
1.289617112
1.28963385
1.289676628
1.289747517
1.289834455
1.289917661
1.289978745
1.290008144
1.290008708
1.289981221
1.289933608
1.289869839
1.293452579
1.286215573
1.289681035
1.28967525
1.289673279
1.2896848
1.289677601
1.289666384
1.289658032
1.289671102
1.289708866
1.28977022
1.289840829
1.289904623
1.289947008
1.289965378
1.289964693
1.289945367
1.289908887
1.289856768
1.292720012
1.28704261
1.289714447
1.289717946
1.289722747
1.289731733
1.28972073
1.289706012
1.289695625
1.2897062
1.289737752
1.289787102
1.28983884
1.289880836
1.289904253
1.289912583
1.289914237
1.289905632
1.289883008
1.289843819
1.292045216
1.28778326
1.28974105
1.289748843
1.2897566
1.289761927
1.289749522
1.289734259
1.289724742
1.2897328
1.289757337
1.289793289
1.289826594
1.289848823
1.289857946
1.289860611
1.289864438
1.289864796
1.289853822
1.289827235
1.291361354
1.288611724
1.289757529
1.289761236
1.289766305
1.289762611
1.289753024
1.289740147
1.289737297
1.289744944
1.289763789
1.289786353
1.289804565
1.289815052
1.289817039
1.289817603
1.289821879
1.28982458
1.289821639
1.289804774
1.290714252
1.287944905
1.287999371
1.285442818
1.285347962
1.283534406
1.2840493
1.283544646
1.284855398
1.285601445
1.287137133
1.288556209
1.289855347
1.291554548
1.292133628
1.293782694
1.293032617
1.29412245
1.291880058
1.292522575
1.289815715
1.279236951
1.289761856
1.289850766
1.28984608
1.289814061
1.289721862
1.289616696
1.289520941
1.289470036
1.289468829
1.289519986
1.289611778
1.289744214
1.289885246
1.290009938
1.290093465
1.290109556
1.290073196
1.289957865
1.298260212
1.2791621
1.289748686
1.289830774
1.289822911
1.289794579
1.289712173
1.289620163
1.289538798
1.289498106
1.289502166
1.289554878
1.289645864
1.289772033
1.289906402
1.290024779
1.290103718
1.29011631
1.290078701
1.289966376
1.298437962
1.278980913
1.289720719
1.289790711
1.289776843
1.289753331
1.289689715
1.289622634
1.289564488
1.289540663
1.289554833
1.289611181