/*--------------------------------*- C++ -*----------------------------------*\
| =========                 |                                                 |
| \\      /  F ield         | OpenFOAM: The Open Source CFD Toolbox           |
|  \\    /   O peration     | Version:  5.x                                   |
|   \\  /    A nd           | Web:      www.OpenFOAM.org                      |
|    \\/     M anipulation  |                                                 |
\*---------------------------------------------------------------------------*/
FoamFile
{
    version     2.0;
    format      ascii;
    class       volScalarField;
    location    "0.8";
    object      T;
}
// * * * * * * * * * * * * * * * * * * * * * * * * * * * * * * * * * * * * * //

dimensions      [0 0 0 1 0 0 0];

internalField   nonuniform List<scalar> 
30538
(
273.4477714
273.0117452
273.005146
272.9940689
272.98191
272.9767604
272.9799255
272.9888297
273.0003678
273.0105645
273.0180108
273.0226807
273.0256639
273.0277358
273.0271497
273.0210965
273.0092536
272.9974464
272.9904922
272.9062981
273.4418329
273.0097554
273.0029928
272.992024
272.980085
272.9751549
272.9785515
272.9876949
272.9993674
273.0096744
273.0172828
273.0221237
273.0252811
273.0273531
273.0266575
273.0206107
273.0091701
272.9978812
272.9910618
272.9087044
273.4307603
273.0068745
272.9998027
272.9891664
272.9778827
272.9734509
272.9772151
272.9867108
272.9985831
273.0090583
273.0170049
273.0221875
273.0256428
273.0276966
273.0268088
273.0209098
273.0103172
273.0000015
272.9933973
272.914032
273.4144173
273.0025742
272.9950594
272.9850636
272.975037
272.9714595
272.9756445
272.9854448
272.997464
273.0081834
273.0166542
273.022359
273.0261469
273.0281929
273.0271147
273.0216624
273.0123479
273.0033394
272.9968905
272.9217075
273.3934685
272.9971889
272.9891671
272.9800386
272.9717949
272.9693665
272.9739972
272.9839646
272.9960734
273.007134
273.0163029
273.0227125
273.0268739
273.0289181
273.0278023
273.0230925
273.01543
273.0078208
273.0012848
272.9315103
273.3697691
272.9914557
272.9828683
272.9747055
272.9684567
272.9671819
272.9722934
272.9822959
272.9945017
273.0060317
273.0159658
273.0231453
273.0277374
273.0298907
273.0291091
273.0253062
273.0194364
273.012976
273.0060992
272.9422359
273.3444036
272.9863284
272.9770872
272.9697017
272.9651317
272.9648709
272.9703767
272.9804623
272.9928377
273.0048914
273.0155586
273.023504
273.0286319
273.0310789
273.030862
273.0282703
273.0239086
273.0181483
273.0107198
272.9530706
273.3200542
272.9827336
272.9728682
272.9657901
272.9623099
272.9627827
272.9684691
272.9785365
272.9911173
273.0036037
273.0148296
273.0234001
273.0291104
273.0320922
273.0326473
273.0312198
273.028003
273.0226107
273.0144364
272.96272
273.2965956
272.9813524
272.9712351
272.9641973
272.9610032
272.961636
272.9672111
272.9770621
272.9894977
273.0020776
273.0134432
273.0223741
273.0286533
273.0323475
273.0337715
273.0332626
273.0307342
273.0254561
273.0166748
272.9700386
273.2767576
272.9823406
272.9724345
272.9653444
272.9618544
272.9621666
272.9672504
272.9764197
272.988132
273.0002067
273.0112176
273.0201462
273.0268863
273.0313618
273.033646
273.0338328
273.0316412
273.0263297
273.0172037
272.9748866
273.2570204
272.9852989
272.9761903
272.9691302
272.9651115
272.9647464
272.9689071
272.9768207
272.9871737
272.9980358
273.0081948
273.0168028
273.0237984
273.0289372
273.0319375
273.0325886
273.0305397
273.025229
273.0162007
272.9770858
273.2385496
272.9893306
272.9814759
272.9747112
272.970219
272.9690256
272.9719409
272.9781547
272.9865585
272.9957105
273.0046365
273.012711
273.0198081
273.0254553
273.0289855
273.0298711
273.0278103
273.0225641
273.0140504
272.9770883
273.2180996
272.9932694
272.9868416
272.9807258
272.9761111
272.9742217
272.9758203
272.9800556
272.9862956
272.9934828
273.0010517
273.0085333
273.0156439
273.0216593
273.0255678
273.0264702
273.0242156
273.0190359
273.0112852
272.9771451
273.1953141
272.9961725
272.991109
272.9858949
272.9816284
272.9794344
272.9798993
272.9822579
272.9863409
272.99164
272.9979535
273.0048847
273.0119741
273.0182207
273.0223046
273.0230346
273.0204142
273.015278
273.0083852
272.976188
273.1692374
272.9977218
272.9938315
272.9897072
272.9862069
272.9841231
272.983793
272.9845201
272.9867497
272.9904251
272.9956888
273.0021736
273.0092378
273.0155996
273.0196773
273.0200607
273.0168796
273.011662
273.0056084
272.9769642
273.1396361
272.9979324
272.9949962
272.992111
272.9896959
272.988083
272.9873367
272.9869334
272.9877166
272.9901174
272.9945205
273.0006141
273.0075452
273.01375
273.0175634
273.0174734
273.0136336
273.0083277
273.0031341
272.9771549
273.1093743
272.9976045
272.9953966
272.9936246
272.992341
272.9913896
272.9904822
272.989488
272.9893644
272.9908727
272.9944416
272.9999067
273.0062692
273.0119586
273.0152832
273.0147674
273.01067
273.0055703
273.001221
272.9806781
273.0768893
272.9974433
272.9958499
272.9949303
272.9945291
272.9941304
272.9933385
272.9922384
272.9917351
272.992653
272.9953646
272.9997295
273.0049244
273.0095788
273.0122223
273.0115892
273.0078658
273.0034557
273.0000977
272.983728
273.0473382
272.9979836
272.9971544
272.9968899
272.9971275
272.9970677
272.9965693
272.9956195
272.9950358
272.9953869
272.997024
272.9998969
273.0032354
273.006203
273.0077743
273.0073008
273.0046424
273.0017609
272.9996634
272.9909617
273.0739704
273.0678859
273.1706264
273.1701507
273.2459688
273.2292452
273.2617701
273.2296374
273.2181744
273.1830536
273.1445838
273.1240058
273.0705357
273.0752697
273.0060861
273.0345146
272.9548756
273.0124722
272.9443492
273.0250341
273.514155
273.0056171
272.9990604
272.9909089
272.9832321
272.9813649
272.9855196
272.9924609
273.0006929
273.0090618
273.0170006
273.0231325
273.0266325
273.0268593
273.0227753
273.0154436
273.0059271
272.9978453
272.9933312
272.857905
273.5093472
273.0040697
272.9974425
272.9893319
272.9817737
272.979939
272.9840835
272.9911656
272.9996004
273.0081103
273.016222
273.0224882
273.0260371
273.0263069
273.0223353
273.0151014
273.005776
272.9978718
272.9933856
272.8586944
273.5002631
273.002105
272.9952951
272.9873404
272.9801569
272.9784534
272.9825822
272.9898658
272.9986119
273.0073789
273.0157704
273.0222611
273.0259309
273.0263338
273.0226316
273.0156894
273.0068079
272.9992596
272.9947327
272.861168
273.4867833
272.9991844
272.992093
272.9844607
272.9780288
272.9766403
272.980778
272.9882223
272.9972786
273.0063433
273.0150797
273.0218241
273.0257555
273.0264241
273.0231794
273.016818
273.0086797
273.0016266
272.9968939
272.8652575
273.4690649
272.9955835
272.9880907
272.9809306
272.9755686
272.9747
272.978906
272.9864361
272.9957396
273.0051007
273.0142075
273.0212428
273.0254496
273.0265949
273.0240884
273.0186497
273.0115304
273.0050323
272.9998703
272.8711572
273.4481038
272.9917262
272.983749
272.9771762
272.9729971
272.9727153
272.97703
272.9846146
272.9941058
273.0037442
273.0131719
273.0205708
273.0252116
273.0269577
273.0254552
273.0211706
273.0152054
273.0091972
273.0034003
272.8787771
273.424761
272.9881681
272.9797161
272.9735755
272.9704218
272.9707031
272.9751304
272.9827887
272.992437
273.0023125
273.0120136
273.019761
273.0249444
273.0274189
273.0270612
273.024099
273.0192816
273.0136172
273.0070109
272.8869198
273.4003699
272.985517
272.9766646
272.9708076
272.9683001
272.968939
272.9733747
272.9810145
272.9907556
273.0007846
273.0106749
273.0187192
273.0244836
273.02777
273.0285256
273.026824
273.023052
273.0175325
273.0101518
272.8957693
273.3751229
272.984305
272.9753937
272.9695732
272.9672497
272.9679321
272.9721735
272.979588
272.9891144
272.9992106
273.0090703
273.0172996
273.0235792
273.0276366
273.0293965
273.0287198
273.0256885
273.0202708
273.0123019
272.9031735
273.3507399
272.984658
272.9760057
272.9702175
272.9677413
272.968158
272.9719454
272.978792
272.9877476
272.9975804
273.0071276
273.0153536
273.0219798
273.026664
273.0291929
273.0292272
273.0266651
273.0213955
273.0131867
272.9107573
273.3249841
272.9863829
272.9783201
272.9726452
272.9698449
272.9697818
272.9728822
272.9788142
272.9868561
272.9959302
273.0048876
273.0128909
273.0196504
273.0247243
273.0276968
273.0281107
273.0258462
273.0207982
273.0128008
272.9161409
273.2987489
272.9889205
272.9816959
272.9762252
272.9730908
272.9725049
272.97482
272.9796247
272.9864285
272.994363
273.0025011
273.0101117
273.0168427
273.0220731
273.0251725
273.0256774
273.0235061
273.018761
273.0113789
272.9219854
273.2702134
272.9915294
272.9851975
272.9800439
272.9767377
272.9757757
272.9774026
272.980997
272.9864292
272.9930193
273.0002389
273.0073646
273.0139729
273.019178
273.0221715
273.0225144
273.0202667
273.0158314
273.0093215
272.9273728
273.2392662
272.9935123
272.9880105
272.9833465
272.9801944
272.9791431
272.9802731
272.9827529
272.9868236
272.9920804
272.9983346
273.0049744
273.0113849
273.0164215
273.0191335
273.019144
273.0167052
273.0125441
273.0070193
272.9335753
273.2054605
272.9946111
272.989853
272.9858148
272.9831825
272.9823745
272.983211
272.9848034
272.9876343
272.9916717
272.9970221
273.0031713
273.0092962
273.0140724
273.0164138
273.0159234
273.0132008
273.0092804
273.0047499
272.9405289
273.1686096
272.9949807
272.9908658
272.9876473
272.9857505
272.9853659
272.9860882
272.9870729
272.9888753
272.9918796
272.9964185
273.002048
273.0078386
273.0121795
273.0140224
273.0129666
273.0099372
273.0062884
273.0027194
272.9483241
273.131444
272.9951328
272.9916904
272.9893568
272.9883051
272.9884084
272.9890917
272.9895866
272.990614
272.9927918
272.9964894
273.0013821
273.006462
273.0102082
273.0115828
273.010193
273.0071279
273.0038243
273.0011222
272.9580871
273.0927317
272.9956281
272.9929427
272.9914248
272.9910501
272.9914648
272.9920758
272.9922896
272.9928143
272.9943272
272.9971291
273.0009714
273.0049872
273.0079027
273.0088518
273.0074888
273.004819
273.0021019
273.0001869
272.9683124
273.0566426
272.9969009
272.9953507
272.9946138
272.9948285
272.9952618
272.9957293
272.995664
272.9957868
272.9965418
272.9981949
273.0006669
273.0031239
273.0048767
273.0052309
273.0043108
273.002427
273.0008496
272.9997377
272.9814336
273.0962369
273.0753748
273.2137089
273.2002659
273.3060196
273.274008
273.3247887
273.2739472
273.2636869
273.2101339
273.1577771
273.124451
273.047373
273.0493057
272.9537688
272.9990397
272.9004076
272.9947669
272.9094398
273.0315852
273.6240081
273.000544
272.995817
272.9922441
272.9899265
272.9897396
272.9919109
272.9937353
272.9973706
273.0040109
273.0139908
273.023877
273.0292883
273.0277368
273.0192408
273.0092652
273.0015481
272.9972064
272.9960171
272.7613917
273.6202234
272.9993861
272.9944733
272.9907794
272.9884697
272.9882599
272.990367
272.9924114
272.9963587
273.0032275
273.0132304
273.0230536
273.0284312
273.0270308
273.0188659
273.0091457
273.0014514
272.9970125
272.9956031
272.7606888
273.6137385
272.9982754
272.9930004
272.9891036
272.9868315
272.9866017
272.9886464
272.9910755
272.9955615
273.0027774
273.0127866
273.0224584
273.0278162
273.0267675
273.0193196
273.0101834
273.0025967
272.9979733
272.9961505
272.759787
273.6030817
272.9967296
272.9909631
272.9868281
272.9846473
272.9844449
272.9865082
272.9894111
272.9945056
273.0020648
273.0119764
273.0213847
273.026812
273.0263731
273.0200869
273.0119295
273.0046238
272.9997329
272.9972373
272.7602638
273.5890472
272.994873
272.9885496
272.9841924
272.9821618
272.982067
272.9842791
272.9876784
272.993305
273.0010887
273.0107418
273.0197695
273.0254258
273.0258669
273.0211929
273.0143487
273.00761
273.0024241
272.998992
272.7615643
273.5704499
272.9928336
272.9859877
272.981454
272.9796112
272.9797318
272.9821926
272.9860411
272.9920401
272.9998751
273.0091205
273.0177104
273.0236185
273.0252016
273.0224798
273.0172308
273.0112445
273.0058543
273.0013428
272.7654717
273.5488102
272.9908503
272.983536
272.978918
272.9772873
272.9776363
272.980326
272.9845639
272.9907434
272.9984457
273.0072464
273.0155097
273.0216922
273.024475
273.0236666
273.020161
273.0150515
273.009595
273.0040137
272.7712396
273.5235283
272.9891705
272.9815816
272.9769684
272.9754847
272.9759805
272.9787795
272.9831768
272.9893878
272.9968667
273.0052591
273.0132982
273.0198104
273.0236909
273.0245762
273.0226493
273.0184595
273.0130955
273.006556
272.7786617
273.4951464
272.988117
272.9805002
272.9759174
272.9745099
272.9749907
272.9776786
272.9819931
272.988046
272.995293
273.0033723
273.0112797
273.0180499
273.0227938
273.0249604
273.0242792
273.0209237
273.0157674
273.0085596
272.7881609
273.4652372
272.9877902
272.980393
272.9758677
272.9744635
272.9747827
272.9771597
272.981155
272.9868881
272.9938698
273.0018037
273.0095782
273.0164827
273.0217289
273.0246197
273.0247017
273.0219702
273.0170643
273.0097235
272.7983613
273.4302706
272.9881471
272.9811342
272.9767121
272.9752064
272.9753117
272.9773082
272.9808615
272.986166
272.9928264
273.0006352
273.0082604
273.0151744
273.0204883
273.0235316
273.0238324
273.0214331
273.0168404
273.0098651
272.8109282
273.3951283
272.9889656
272.9824027
272.9780943
272.9764117
272.9763661
272.9780597
272.9811865
272.986024
272.9923738
272.9998362
273.007309
273.0140955
273.0191209
273.0217747
273.0218405
273.0194442
273.0152385
273.0090146
272.8236529
273.3534376
272.9899463
272.9837944
272.9796373
272.9778116
272.9777496
272.9793313
272.9821193
272.986546
272.9924145
272.9994609
273.0066689
273.0131523
273.0176127
273.0195359
273.0189998
273.0164415
273.0126314
273.0074063
272.8400614
273.3124518
272.9908869
272.985106
272.9811559
272.9793273
272.9794189
272.9810795
272.9836185
272.9876285
272.9929236
272.9994407
273.0062343
273.0122089
273.015904
273.0169444
273.0156531
273.0129175
273.0095463
273.0054372
272.8549702
273.2648535
272.991669
272.9862982
272.9826466
272.9810644
272.9814407
272.9832963
272.9856501
272.9892023
272.9938989
272.9997123
273.0058841
273.0111474
273.013959
273.014093
273.0120821
273.0093094
273.006472
273.0034948
272.8754167
273.2192865
272.9924091
272.9875438
272.9843656
272.9832142
272.9839218
272.985897
272.9880807
272.9911104
272.9951458
273.0001521
273.0054692
273.0098729
273.0118071
273.0111587
273.0086092
273.0059669
273.0037479
273.0018737
272.893042
273.1688039
272.993272
272.989071
272.986531
272.9859415
272.9869099
272.9888466
272.9907804
272.9932364
272.9964838
273.0005712
273.0048407
273.00819
273.0092937
273.0081551
273.005491
273.0032359
273.0017048
273.0007478
272.9175284
273.1219587
272.9946007
272.9913121
272.9894868
272.9893094
272.9903159
272.9919656
272.9935035
272.9953346
272.9977184
273.0007401
273.0039057
273.0062186
273.0067076
273.0054572
273.003147
273.0014668
273.0005394
273.000182
272.9378382
273.0722933
272.9965839
272.9946767
272.9937005
272.9939356
272.9947243
272.9958603
272.9967202
272.9976855
272.9989596
273.000705
273.002594
273.0037834
273.0037991
273.0026681
273.0011411
273.0001048
272.9998559
272.9998796
272.9651834
273.1068213
273.1184264
273.2594369
273.2822787
273.3770459
273.3722429
273.3970636
273.3539816
273.3144022
273.2497627
273.1725323
273.111752
273.0179763
272.986022
272.8902227
272.9107865
272.8387152
272.9288697
272.8823052
273.0054727
273.8815735
273.0010307
272.9994347
273.000116
273.0004377
272.9979754
272.9935606
272.9883938
272.9875478
272.993572
273.0068164
273.0215411
273.0305645
273.0297774
273.0200406
273.0089816
273.0019328
272.9994894
272.9994295
272.5678195
273.8793744
272.9998361
272.9978128
272.9981083
272.9983192
272.9960397
272.9920171
272.9874066
272.9870234
272.9932869
273.0064175
273.0208622
273.0297255
273.0290918
273.0197749
273.0090498
273.0019841
272.9992347
272.998738
272.5634156
273.8758874
272.9987385
272.9959093
272.9954857
272.9954556
272.9935175
272.9902529
272.9866877
272.9871488
272.9937744
273.0065879
273.0204747
273.029065
273.0288247
273.0204113
273.0104044
273.0033673
273.0001032
272.9989169
272.5560486
273.8693882
272.9973698
272.9934959
272.992113
272.9917131
272.9901867
272.987952
272.985762
272.9873043
272.9942617
273.0064943
273.0195524
273.0278204
273.0282819
273.0213193
273.0124754
273.0056114
273.0017477
272.9995765
272.5479948
273.8595531
272.99591
272.9909171
272.988489
272.9876542
272.9865562
272.9854699
272.9847874
272.9874328
272.9945502
273.0059047
273.0179163
273.0258893
273.0273509
273.0223478
273.0150667
273.0086753
273.0041716
273.0008016
272.5401074
273.8442232
272.9944692
272.9884405
272.985107
272.9838759
272.983204
272.9832255
272.9839699
272.987432
272.9944882
273.0046937
273.0155108
273.0232543
273.0259237
273.0231946
273.0178142
273.0121778
273.0072557
273.0026036
272.5361111
273.8232022
272.993132
272.9862958
272.9822813
272.9807487
272.980452
272.9814083
272.9832074
272.9871415
272.9938928
273.0029157
273.0125288
273.0201689
273.0240102
273.0235307
273.0202742
273.0156274
273.0105632
273.004775
272.535438
273.7950961
272.9919879
272.9846757
272.9802817
272.978589
272.9785397
272.9800038
272.9823976
272.9864837
272.9928146
273.0008606
273.0095981
273.0172453
273.0221484
273.0235087
273.0221514
273.0185517
273.0135961
273.0069896
272.5419659
273.760065
272.9910748
272.9836129
272.9791056
272.9773938
272.9774167
272.9790031
272.981554
272.9855741
272.9914618
272.9988931
273.0071151
273.0148027
273.0204451
273.0232102
273.0232799
273.0206275
273.0159235
273.008845
272.5527079
273.7178225
272.9904028
272.9830583
272.9786122
272.9769842
272.9769382
272.9783868
272.9807898
272.984628
272.9902443
272.9974381
273.0054094
273.0131334
273.0192428
273.0227824
273.0235951
273.0215583
273.0171531
273.0099338
272.5726298
273.6670314
272.989928
272.982877
272.9786054
272.9771102
272.9769696
272.9782125
272.9803746
272.9840638
272.9895819
272.996779
273.0047799
273.0125543
273.0186925
273.022282
273.0230831
273.0211644
273.0169786
273.0100092
272.5951214
273.6111334
272.9895964
272.9829427
272.978925
272.9776188
272.9774818
272.9786011
272.9806014
272.9842323
272.9897398
272.9970675
273.0052096
273.0129044
273.018628
273.0215634
273.021693
273.0193939
273.0152942
273.0090151
272.6271484
273.5475436
272.9894762
272.9832909
272.9795826
272.9785255
272.9785337
272.9796919
272.9816674
272.9853024
272.9908219
272.9982325
273.00631
273.0136756
273.0185877
273.0203735
273.019403
273.0164309
273.0124671
273.0072067
272.6597705
273.4813117
272.9897358
272.9841029
272.9807979
272.9799389
272.9802482
272.9815605
272.9836107
272.9872474
272.9927224
272.999942
273.0076597
273.0142969
273.0180297
273.0184224
273.0162177
273.0128197
273.0091646
273.0050442
272.7007877
273.408862
272.9905277
272.9854806
272.9826631
272.9820606
272.9826554
272.9841552
272.9862719
272.9898767
272.9951112
273.0018481
273.0087741
273.0142579
273.0165533
273.0155365
273.0124391
273.0090103
273.0059631
273.0030603
272.7413572
273.3380103
272.9918325
272.9875071
272.9851905
272.9848723
272.985653
272.9872503
272.9893637
272.9927946
272.9975777
273.003497
273.0092432
273.0132705
273.0141192
273.0119695
273.0084647
273.0054289
273.0033018
273.0016661
272.7875016
273.2619079
272.9935028
272.9900518
272.9882565
272.9881802
272.9890099
272.990569
272.9925201
272.9955323
272.9995772
273.0044313
273.0086985
273.011177
273.0107975
273.0080288
273.0046608
273.0025053
273.0014473
273.0009507
272.8339789
273.1899552
272.9953378
272.9928461
272.9916025
272.9917176
272.9924725
272.9937553
272.9953628
272.9976994
273.0007453
273.0042468
273.0071506
273.0083671
273.0073363
273.0046593
273.0019673
273.0007332
273.0004899
273.0006384
272.8814945
273.1127767
272.9974966
272.9964126
272.9958004
272.9962975
272.9966922
272.9976094
272.9983563
272.9996103
273.0011957
273.0031583
273.0046871
273.0049412
273.0038217
273.0016995
273.000036
272.9994412
272.9998432
273.0002937
272.9301685
273.1891321
273.1607376
273.4305535
273.4165834
273.6148129
273.5512848
273.6294965
273.5112816
273.4680858
273.334139
273.2095525
273.1024123
272.9331908
272.8978158
272.7160787
272.8015311
272.6548518
272.8698272
272.7613766
273.0258068
274.1812415
273.0053371
273.0071535
273.009792
273.009222
273.0020217
272.9900738
272.9787233
272.9745693
272.9800734
272.9953963
273.013635
273.0270726
273.0304991
273.0242758
273.0152847
273.0088754
273.0060022
273.0038412
272.3040785
274.1802721
273.0037037
273.0047823
273.0068611
273.0062844
272.999622
272.9887206
272.9783678
272.9749144
272.9806492
272.9957373
273.0135371
273.0266325
273.0301394
273.0241853
273.01547
273.0090618
273.0059211
273.0031915
272.2964702
274.1812196
273.0018711
273.0015577
273.0026031
273.0019328
272.9962266
272.9872194
272.9787247
272.976561
272.9826843
272.9972459
273.0142047
273.0267196
273.030379
273.0250709
273.0169729
273.0106441
273.0070312
273.0035647
272.2791168
274.1777102
272.9996643
272.9975803
272.9972455
272.9963335
272.991788
272.9851445
272.9791111
272.978597
272.9851677
272.9989
273.0146489
273.0264186
273.0303119
273.0261175
273.0190488
273.0129868
273.0088437
273.0043763
272.2621889
274.1731808
272.9975171
272.9935516
272.9917544
272.990396
272.9870525
272.9828355
272.9794482
272.9806249
272.987553
273.0001589
273.0144199
273.0253583
273.0296385
273.0270095
273.0213649
273.0158926
273.0111994
273.0056318
272.2405624
274.1598145
272.9956686
272.9900165
272.9868905
272.9850467
272.9827427
272.980679
272.9797176
272.9823409
272.9893453
273.0006056
273.0132268
273.0232639
273.0281553
273.0274066
273.0235459
273.0189028
273.0139112
273.0072788
272.2271668
274.1403166
272.9942386
272.9872499
272.9830342
272.9807959
272.9793026
272.9790198
272.9798421
272.983411
272.9902148
273.0001306
273.0111602
273.0203985
273.0258811
273.0269756
273.0251782
273.0215399
273.0166296
273.0091462
272.2183563
274.1098344
272.9931374
272.985333
272.9804037
272.9779426
272.9769721
272.9777695
272.9796291
272.9836825
272.9901153
272.9988106
273.0084557
273.0172003
273.0234515
273.0261744
273.026149
273.0236323
273.0189686
273.0109475
272.2211198
274.0670677
272.9922142
272.9840904
272.9788539
272.9763529
272.975595
272.9768813
272.9791352
272.9832614
272.9892084
272.9971344
273.0060502
273.014626
273.0213518
273.0252944
273.0265368
273.0249355
273.0206011
273.0123261
272.2366303
274.0147259
272.9913592
272.9833011
272.9780943
272.9757647
272.975099
272.9764189
272.9786296
272.9824659
272.9880352
272.995623
273.0042883
273.0128405
273.0199544
273.0246379
273.026461
273.0253047
273.0211852
273.0129335
272.2624939
273.9446745
272.9905092
272.9828224
272.9779409
272.9759905
272.9754074
272.9765122
272.9783965
272.9819619
272.9872796
272.994832
273.0036301
273.0123393
273.0195734
273.0243604
273.0259753
273.0246044
273.0204646
273.0125071
272.305197
273.871031
272.9897899
272.9827122
272.9784002
272.9769996
272.976549
272.9773914
272.9789087
272.9821778
272.9874783
272.9951147
273.0041602
273.0130328
273.0200587
273.0242013
273.0248986
273.0227514
273.0184107
273.0110614
272.3537893
273.7779977
272.9894059
272.9831871
272.9796432
272.9788877
272.9786379
272.9792951
272.9805228
272.9835676
272.9888199
272.9965843
273.0057135
273.0144254
273.0207399
273.0236224
273.0230443
273.0198877
273.0153987
273.0089481
272.4194547
273.6896686
272.9896949
272.9845238
272.9818513
272.9817275
272.9816739
272.9822242
272.9832632
272.9861474
272.9912801
272.9989582
273.0077451
273.0156987
273.0207722
273.0220264
273.0202041
273.0164224
273.0120425
273.0067271
272.4848822
273.5818493
272.9908236
272.9869236
272.9851303
272.9854952
272.9855308
272.9859571
272.9868273
272.9895832
272.9944814
273.0017182
273.0095602
273.0160919
273.0194305
273.0190941
273.0164653
273.0126849
273.0089211
273.0048581
272.5659215
273.4869362
272.9928046
272.9901151
272.9891462
272.9897303
272.9896914
272.9898972
272.9906615
272.9932614
272.9977847
273.0041564
273.0105433
273.0152428
273.0167389
273.0151493
273.0122112
273.0090586
273.0063407
273.0035647
272.6397341
273.3733573
272.9951129
272.9934994
272.9931472
272.9937177
272.9935427
272.9935697
272.9942242
272.9965232
273.0003879
273.0055469
273.0102245
273.0129609
273.0128578
273.0104935
273.0078481
273.0057756
273.0043606
273.0028307
272.7266564
273.2756328
272.9971978
272.996402
272.9964342
272.9968843
272.9966126
272.9964856
272.9970101
272.998817
273.0017735
273.0055017
273.0084839
273.0096197
273.008614
273.0062264
273.004229
273.0032718
273.0028764
273.0022795
272.8010717
273.1597793
272.9990855
272.9993903
272.9998062
273.0004681
273.000146
272.9999163
272.9998603
273.0006218
273.0020857
273.0040935
273.005519
273.0055815
273.0043555
273.0025227
273.0013243
273.0011452
273.0014289
273.0014319
272.8868528
273.2218579
273.2820369
273.5671672
273.6519843
273.824381
273.8257495
273.827289
273.7140615
273.5841775
273.415474
273.2225822
273.052485
272.845714
272.7342103
272.5582326
272.5833297
272.4995931
272.7052044
272.6899107
272.9567796
274.6976009
273.0093375
273.0108105
273.0123847
273.0095754
272.9995096
272.9849656
272.9721232
272.9667598
272.9705936
272.9833582
273.0004894
273.0159059
273.0249646
273.0273894
273.0255565
273.0218756
273.0173424
273.0107874
271.8403625
274.7026138
273.0073715
273.0080005
273.0091285
273.0064902
272.9972179
272.9841074
272.9725518
272.9680346
272.9721844
272.9847572
273.0014184
273.0163905
273.0251745
273.0275573
273.0257965
273.0220663
273.0173601
273.0101668
271.8194668
274.7150379
273.0049613
273.0039819
273.0043142
273.0018906
272.9940693
272.9834973
272.9742895
272.9713163
272.9760027
272.9881616
273.0039796
273.0181458
273.026488
273.0288414
273.0272173
273.0234983
273.0185293
273.0108258
271.7787264
274.7255879
273.0021181
272.9990892
272.9982207
272.9959604
272.9900116
272.9825466
272.9763028
272.975232
272.9805805
272.9922083
273.0069095
273.0199221
273.0277213
273.0300615
273.0287985
273.0253525
273.0201435
273.0117503
271.7286887
274.7368226
272.9994191
272.9942262
272.9919656
272.9897238
272.9856162
272.9812486
272.9781514
272.9791151
272.9851471
272.9961121
273.009512
273.0213064
273.0286869
273.0311747
273.0303253
273.0272257
273.0219185
273.0128152
271.6714661
274.7351062
272.9972004
272.990089
272.9865171
272.984221
272.9815542
272.9798871
272.9795886
272.9822887
272.9888715
272.9991507
273.011108
273.0216931
273.0287002
273.0315229
273.0313699
273.028752
273.0235149
273.0139108
271.6264552
274.7236332
272.9955986
272.9869762
272.9823305
272.9799022
272.9783375
272.9786775
272.9804635
272.984473
272.9913062
273.0008178
273.0113777
273.020864
273.0275566
273.0308693
273.0316299
273.0296578
273.0247524
273.0148944
271.5908361
274.6910065
272.9944073
272.984837
272.9794394
272.9769105
272.9760877
272.9777112
272.9806935
272.9854489
272.9921464
273.0009315
273.0104031
273.0190333
273.0256487
273.029685
273.0312937
273.0299795
273.025492
273.0156268
271.5843167
274.6387396
272.9933666
272.9834067
272.977652
272.9751413
272.9747407
272.9770031
272.9804369
272.9853925
272.9918335
272.9999317
273.0086337
273.0169631
273.0237562
273.0283859
273.0305527
273.0296987
273.0255845
273.015956
271.5987692
274.5632468
272.992274
272.9824274
272.9767237
272.9745024
272.9743485
272.9767189
272.9800384
272.9846917
272.9907711
272.998296
273.0067685
273.0151548
273.0221683
273.0271863
273.0295965
273.0288864
273.0249442
273.0156747
271.6493811
274.4633012
272.9911727
272.9819221
272.9766568
272.9749901
272.9749751
272.9770634
272.9798212
272.9838402
272.989392
272.9967483
273.0052857
273.0139395
273.0212238
273.0263553
273.0285919
273.0276056
273.0235765
273.0147847
271.7206233
274.3462102
272.9902951
272.9820508
272.9775987
272.9766553
272.9767195
272.9782911
272.9802649
272.983527
272.9885625
272.9957975
273.0045788
273.0134642
273.0209273
273.0258286
273.0274897
273.0258838
273.0215689
273.0133323
271.8287439
274.2065406
272.98997
272.9831141
272.9797167
272.9795679
272.9796505
272.9805964
272.9817373
272.9842362
272.9887431
272.9957887
273.0045759
273.0134687
273.0207477
273.0250789
273.0260446
273.0237333
273.0192169
273.0116568
271.9459887
274.0619383
272.9905177
272.9852926
272.9830961
272.9836392
272.9836213
272.9838679
272.9842327
272.986124
272.9902081
272.9968427
273.005237
273.0135871
273.0201253
273.0236627
273.023985
273.0213123
273.0168133
273.0100816
272.0926891
273.8983743
272.9919887
272.988571
272.9875088
272.9884623
272.9882108
272.9878055
272.9874824
272.9889174
272.9925765
272.9986416
273.0060728
273.0131925
273.0184134
273.0209251
273.0209754
273.0186248
273.0145564
273.0088003
272.23248
273.7445949
272.9941834
272.9924533
272.9922864
272.9932736
272.992658
272.9917001
272.9909821
272.9921037
272.9953335
273.0005819
273.0066172
273.0120765
273.0156977
273.0172669
273.017212
273.0155579
273.0124426
273.0077402
272.3856594
273.5721154
272.9965532
272.9961067
272.9965185
272.9972878
272.9963473
272.9950888
272.9941984
272.9951056
272.9978035
273.0020245
273.0064475
273.0100431
273.0120409
273.0127531
273.0128955
273.012157
273.010227
273.0067027
272.5268619
273.4173884
272.9984801
272.9987476
272.9994103
272.999869
272.9988083
272.9975048
272.9966886
272.997379
272.9994775
273.0025517
273.0054006
273.0073052
273.0080833
273.0083118
273.008639
273.008668
273.0077324
273.0053539
272.669568
273.2434338
273.0000331
273.0016394
273.0023972
273.0036791
273.0024286
273.0016633
273.0001245
273.0000062
273.0006393
273.0021082
273.0034471
273.0040788
273.0040113
273.0040823
273.0042353
273.0048662
273.0044858
273.0034756
272.8038707
273.3855168
273.3743401
273.9189235
273.9399313
274.3268812
274.2156667
274.3220377
274.041484
273.8830255
273.5579273
273.2586149
272.9847631
272.6260262
272.5034908
272.1561848
272.3145319
272.0861242
272.5584724
272.4216374
272.9908264
275.2540585
273.0108342
273.008261
273.0078934
273.005149
272.9972559
272.9882856
272.9800784
272.975722
272.9756314
272.9799229
272.9878598
272.9991749
273.0112325
273.0219104
273.0290398
273.0304172
273.0273091
273.0170033
271.2360293
275.2686214
273.0090099
273.0057509
273.0050995
273.0026686
272.9956227
272.9877414
272.9807879
272.9773028
272.9776657
272.9821564
272.9899464
273.0007384
273.0122199
273.0223489
273.0291034
273.0301803
273.0269641
273.0159758
271.1992276
275.3049978
273.0069008
273.0023247
273.001159
272.9991395
272.9937037
272.9879541
272.9829906
272.9809451
272.9821689