/*--------------------------------*- C++ -*----------------------------------*\
| =========                 |                                                 |
| \\      /  F ield         | OpenFOAM: The Open Source CFD Toolbox           |
|  \\    /   O peration     | Version:  5.x                                   |
|   \\  /    A nd           | Web:      www.OpenFOAM.org                      |
|    \\/     M anipulation  |                                                 |
\*---------------------------------------------------------------------------*/
FoamFile
{
    version     2.0;
    format      ascii;
    class       volVectorField;
    location    "0.8";
    object      U;
}
// * * * * * * * * * * * * * * * * * * * * * * * * * * * * * * * * * * * * * //

dimensions      [0 1 -1 0 0 0 0];

internalField   nonuniform List<vector> 
30538
(
(0.03441021962 -0.001641722778 -0.002125102464)
(0.02481508752 -0.004063494562 -0.01120424087)
(0.01813975752 -0.006386402496 -0.01859658352)
(0.008802781476 -0.007637202568 -0.02799013351)
(0.01109137361 -0.00790445547 -0.03092775133)
(0.01843716577 -0.006970267977 -0.03238454028)
(0.03036349423 -0.005618316478 -0.02707729964)
(0.0305255676 -0.004406525205 -0.02351858956)
(0.01625859196 -0.003510641671 -0.01863978158)
(-0.0167845386 -0.002425597207 -0.01547570272)
(-0.04537076495 -0.001156125155 -0.01158618298)
(-0.06686861096 6.192171931e-05 -0.006735644097)
(-0.06884876313 0.0007780654874 -0.0003096374167)
(-0.06865534805 0.0007718485804 0.009915664511)
(-0.06108073251 0.0005459130612 0.02031637258)
(-0.05296759691 0.0009004987264 0.03262232699)
(-0.02452343592 0.00208089089 0.03784462857)
(0.02349188577 0.0030200244 0.03907342424)
(0.0751917808 0.00271072078 0.02579968725)
(0.1141186428 0.001227009117 0.01198893191)
(0.03039653168 -0.004551562907 -0.001979457154)
(0.02144869803 -0.01122769722 -0.0107311219)
(0.01561023523 -0.0176052441 -0.01772474029)
(0.007725603338 -0.02094348887 -0.0268474578)
(0.01155672472 -0.02157707429 -0.02977034691)
(0.02005307713 -0.01901348228 -0.03148861567)
(0.03217910926 -0.01530152633 -0.02649626625)
(0.03202171313 -0.01209326116 -0.02313851863)
(0.01766546409 -0.009869707221 -0.01826647909)
(-0.01511980716 -0.007141030464 -0.01504215363)
(-0.04361541393 -0.003824766755 -0.01095586609)
(-0.0654929511 -0.0005482325846 -0.005957764781)
(-0.06833159545 0.001478415142 0.0005690502191)
(-0.06879695201 0.001618051288 0.01084497095)
(-0.06096817408 0.001332015124 0.02110645882)
(-0.05186484866 0.002756209933 0.03301688045)
(-0.02300976978 0.00633562637 0.03772341513)
(0.0239339939 0.009096967086 0.03857803911)
(0.07390890142 0.008094479045 0.02533142908)
(0.1112814315 0.003698191811 0.01174918425)
(0.02334743267 -0.006527720794 -0.001742459103)
(0.01560247502 -0.01574087225 -0.009892937072)
(0.01130483978 -0.02464715505 -0.01618648627)
(0.006008230644 -0.02882803384 -0.02481382552)
(0.01245242042 -0.02940626426 -0.02772847004)
(0.0228683206 -0.02567425797 -0.02988056691)
(0.03524929824 -0.02065438953 -0.02554514694)
(0.03435571335 -0.01657139785 -0.02256153234)
(0.0197486686 -0.01424465416 -0.01770128579)
(-0.01252691339 -0.01118882894 -0.01431427621)
(-0.04073515363 -0.007088027924 -0.009830860004)
(-0.06312014485 -0.002792052034 -0.004514490058)
(-0.06731689996 0.0001538913316 0.00219774172)
(-0.06875400544 0.0006766588128 0.01252342122)
(-0.06027112209 0.001156335068 0.02244457474)
(-0.04941767078 0.004132419905 0.03351928898)
(-0.02001900648 0.01014943815 0.03723869731)
(0.0247412195 0.01438406866 0.03742310815)
(0.07138737221 0.01285925773 0.02429548575)
(0.105720008 0.005901449038 0.01122269041)
(0.01478428861 -0.007312286399 -0.001453526822)
(0.008659965685 -0.01702823038 -0.008907577203)
(0.006409178073 -0.02637616987 -0.01427653171)
(0.004382664071 -0.02989412877 -0.02234788644)
(0.01378228062 -0.02975332947 -0.02518477896)
(0.02623298943 -0.02536433314 -0.02792460505)
(0.03859874525 -0.02044301411 -0.02439702218)
(0.03653981771 -0.01696962556 -0.02194807393)
(0.02145709228 -0.01605457386 -0.01707635563)
(-0.01007830759 -0.01424319621 -0.01341382585)
(-0.03770651749 -0.01100817853 -0.008403451998)
(-0.06038092447 -0.007149819076 -0.002598307298)
(-0.06587994709 -0.004081542366 0.00432788804)
(-0.06808341138 -0.002880105365 0.01460654157)
(-0.05852839735 -0.0007450349515 0.02388067109)
(-0.0454997785 0.003994436064 0.03376223635)
(-0.01573660035 0.01231296541 0.03612665532)
(0.02585997845 0.01784417031 0.03551628669)
(0.06793341216 0.01618459657 0.02265147106)
(0.09793320938 0.007449269602 0.01039637024)
(0.006281323233 -0.006981703915 -0.001168086181)
(0.002142667802 -0.01531069305 -0.007943975152)
(0.002255974006 -0.02303672041 -0.01238593764)
(0.003637032225 -0.02462400817 -0.01988381209)
(0.01565093812 -0.02313874579 -0.02269157248)
(0.02944776407 -0.01865621444 -0.02601538856)
(0.04117290214 -0.01505503805 -0.02337827267)
(0.03745359843 -0.01351729979 -0.02150157872)
(0.02166694829 -0.01516703563 -0.01658768872)
(-0.00896833813 -0.01608747116 -0.01255848224)
(-0.03574024575 -0.01520845483 -0.006908157519)
(-0.05823242782 -0.01316380796 -0.0004774440717)
(-0.06429734712 -0.01079143923 0.006780409719)
(-0.06639305145 -0.009156737172 0.01679641033)
(-0.05541716748 -0.005204755305 0.02503346728)
(-0.04017525147 0.001085270264 0.03346122955)
(-0.01019756196 0.01141209293 0.03427813666)
(0.02749160901 0.01797962402 0.03280226323)
(0.06405769719 0.0169126144 0.02039799895)
(0.08890477331 0.007752922697 0.009308836236)
(-0.0008429302767 -0.005752704289 -0.000920205774)
(-0.00268205117 -0.01128049833 -0.007085851468)
(-0.0001404710539 -0.0158688129 -0.01071413434)
(0.004319748663 -0.01476967278 -0.0177316847)
(0.01799447588 -0.01164083453 -0.0204656199)
(0.0319520187 -0.007412935315 -0.02431197543)
(0.04222585271 -0.005909927563 -0.02242501912)
(0.0364641999 -0.007320460763 -0.02112808543)
(0.01964135571 -0.01218882875 -0.01619217523)
(-0.01010340218 -0.01669784359 -0.01171759023)
(-0.03565044283 -0.01926802022 -0.00540096527)
(-0.05726435425 -0.01989003184 0.001621498548)
(-0.0630423231 -0.01891796533 0.008997906311)
(-0.06413290976 -0.0175078351 0.0185741189)
(-0.0512959853 -0.01266027004 0.02559790449)
(-0.03373655258 -0.005303727527 0.03248846499)
(-0.003762793677 0.005968065649 0.03170338677)
(0.02976387859 0.01330409631 0.02948279295)
(0.06071672741 0.01389774229 0.01775726748)
(0.08037715037 0.006426725763 0.008081184106)
(-0.005646107351 -0.003822561914 -0.0007127688323)
(-0.005017569843 -0.005566405564 -0.006356928891)
(-0.000192388651 -0.006231516029 -0.009409581702)
(0.006617333101 -0.001997296629 -0.0159787519)
(0.02083576943 0.002966210416 -0.01866813791)
(0.03350923941 0.006489528985 -0.02287686596)
(0.04124471324 0.005484472178 -0.02164496901)
(0.03302372423 0.0005962471456 -0.02074737315)
(0.01505578861 -0.007847458703 -0.01580040223)
(-0.0139591725 -0.01606300803 -0.01090058311)
(-0.03800265006 -0.02239509125 -0.003949116575)
(-0.05798092602 -0.02626874936 0.003508621357)
(-0.06260661474 -0.02739790818 0.01088501547)
(-0.06196778318 -0.02708998491 0.01974672665)
(-0.04680042273 -0.02241308584 0.02554284683)
(-0.0269896643 -0.01525889207 0.03084402921)
(0.002981275037 -0.004067399343 0.02879379122)
(0.03311477828 0.003706938412 0.025996392)
(0.05921057523 0.007036194541 0.01509900817)
(0.07442122326 0.003415100006 0.006888008911)
(-0.00738531932 -0.001380934943 -0.0005308730588)
(-0.004417679698 0.001189597266 -0.005783246143)
(0.002384530364 0.004489006538 -0.008403397349)
(0.01079957138 0.01154740578 -0.0147339807)
(0.02397464132 0.01747864269 -0.01743347643)
(0.03373369317 0.02006695415 -0.02179576334)
(0.03807253189 0.01649011217 -0.02093122884)
(0.0270530153 0.00864213136 -0.02026107441)
(0.007898926675 -0.002974690304 -0.01528259547)
(-0.02036721343 -0.01440495778 -0.01001959161)
(-0.04286393703 -0.0241789118 -0.002698845899)
(-0.06078388393 -0.03134883683 0.005059311197)
(-0.06362001144 -0.03502395389 0.01224877022)
(-0.06060705478 -0.03651057564 0.02033849867)
(-0.04294072581 -0.03297977526 0.02499597785)
(-0.02074938862 -0.02737210551 0.02899493105)
(0.009660813731 -0.01731174164 0.02596503253)
(0.03762547708 -0.009445372392 0.02290788898)
(0.06053776698 -0.002689792112 0.01287855175)
(0.07289200961 -0.0008300535994 0.005916257789)
(-0.005703187713 0.001517644239 -0.0004141716171)
(-0.0009306654316 0.00845986756 -0.005262871798)
(0.007115873533 0.01519600519 -0.007693607152)
(0.01576591146 0.02387301953 -0.01380602684)
(0.0268322041 0.02951946416 -0.01637339228)
(0.03281185035 0.03091755744 -0.02069845582)
(0.03318689158 0.02524991605 -0.02000147832)
(0.01928264171 0.01530086044 -0.01944140783)
(-0.001189096817 0.001725148455 -0.01448848568)
(-0.02892237995 -0.01206407371 -0.009093576758)
(-0.04996826781 -0.02447715952 -0.001591572774)
(-0.06562099205 -0.03438215045 0.006162496231)
(-0.06625424897 -0.04045065435 0.01308678653)
(-0.06052142813 -0.04394795293 0.02037969567)
(-0.0403461292 -0.0422006536 0.02407881998)
(-0.01590157011 -0.03889068824 0.02718239202)
(0.01565966588 -0.03091478984 0.02371620474)
(0.04345879395 -0.02343270592 0.02068252311)
(0.0653465278 -0.01321900891 0.01141107886)
(0.07684218247 -0.005429156377 0.005314396511)
(-0.0002731502528 0.004400996114 -0.0003414181516)
(0.005160190862 0.01526158784 -0.004924521011)
(0.01325410574 0.02431219227 -0.007254372595)
(0.02088491193 0.03330482769 -0.0130949319)
(0.02892814401 0.0375988585 -0.01551149152)
(0.0307210619 0.03745444502 -0.01957194487)
(0.02705632057 0.03022193434 -0.01883135874)
(0.01044822934 0.01921210877 -0.01822800406)
(-0.01138556544 0.004869278735 -0.0134197094)
(-0.03886035613 -0.009901540943 -0.008088441044)
(-0.05861667007 -0.02371336721 -0.0007903104415)
(-0.07204545368 -0.03530004251 0.006770943216)
(-0.07037806644 -0.04307382103 0.01329138634)
(-0.06184727881 -0.04819687291 0.01995392216)
(-0.03937009871 -0.04820071987 0.02299571363)
(-0.01276850028 -0.04722615016 0.02566820298)
(0.02058155935 -0.04146376981 0.02228651223)
(0.05013727485 -0.03476398806 0.01951465283)
(0.07332753321 -0.02193388043 0.01084700355)
(0.0860396124 -0.00925168716 0.005100128964)
(0.008232408914 0.006641599675 -0.0003647034815)
(0.01303121392 0.02011008528 -0.004694570213)
(0.01983951994 0.03008076796 -0.007015997203)
(0.02511899123 0.03815517285 -0.01243107679)
(0.0297454391 0.04040297011 -0.01459949321)
(0.02760771512 0.03864572652 -0.01815364112)
(0.02031985019 0.03063618064 -0.01723556534)
(0.001396451315 0.01956902116 -0.01652806372)
(-0.02170501978 0.005722190608 -0.0119715358)
(-0.04909338682 -0.00869942186 -0.007028867899)
(-0.06788542313 -0.02234329529 -0.0001483779724)
(-0.0792750519 -0.03427160039 0.006890023802)
(-0.07536040506 -0.04245047078 0.01297574233)
(-0.06415453496 -0.04828654867 0.01908820344)
(-0.03966655864 -0.04927545769 0.02183302844)
(-0.01115112773 -0.05000377787 0.02448877202)
(0.02444961039 -0.04611394408 0.02162687967)
(0.05725787277 -0.04040670741 0.01926637877)
(0.0834559604 -0.02646948512 0.01099830955)
(0.09887793747 -0.01135400031 0.005203474138)
(0.01864966694 0.007587078747 -0.0004397841336)
(0.02160545952 0.02178628504 -0.004575630938)
(0.02597987887 0.03091490355 -0.006831337502)
(0.02814638439 0.0372934804 -0.0117751176)
(0.02926498802 0.03737482959 -0.01356288677)
(0.02383621039 0.03442686896 -0.01650279621)
(0.01360712115 0.02629055351 -0.01534366018)
(-0.007115937703 0.01612930323 -0.01447183859)
(-0.03130866535 0.003707520321 -0.01031939012)
(-0.05865266204 -0.008945268109 -0.005830393795)
(-0.07664658149 -0.02082584932 0.0003526553123)
(-0.08622856896 -0.03136713494 0.006762954981)
(-0.08027236026 -0.03848536652 0.01230867919)
(-0.06668804433 -0.04368937001 0.01801248275)
(-0.04059771357 -0.0444054477 0.02073433977)
(-0.01056075346 -0.04557739702 0.02364777203)
(0.02733414929 -0.04261328447 0.02160952601)
(0.06400803645 -0.03805935901 0.0196500028)
(0.09393813691 -0.02512214491 0.01165262661)
(0.1127767577 -0.01103430972 0.005470053381)
(0.02898965844 0.00679678808 -0.0005134529521)
(0.02940456998 0.01937449778 -0.004378218305)
(0.0307751546 0.02628458818 -0.006525398841)
(0.02966218791 0.03072298597 -0.01085288671)
(0.02771989435 0.02920497365 -0.01222914418)
(0.01980069935 0.02564752146 -0.01448340239)
(0.00743118586 0.01806041065 -0.01309653429)
(-0.0145125352 0.009371414902 -0.01208453851)
(-0.0393717921 -0.0008313621715 -0.008352811471)
(-0.06637884274 -0.01046590913 -0.004468686857)
(-0.08368653173 -0.01895532773 0.000914057801)
(-0.09173030387 -0.02656168511 0.006474977756)
(-0.08406246615 -0.03100724827 0.01144254129)
(-0.06836484612 -0.03429058344 0.01672499114)
(-0.04102664804 -0.03350858593 0.01955556035)
(-0.009920949399 -0.0339420263 0.02283145187)
(0.02971892815 -0.03082775097 0.02168848868)
(0.06959349749 -0.0277904362 0.02008000054)
(0.1026178443 -0.01778658143 0.01228789788)
(0.1244240236 -0.008271318162 0.005711757512)
(0.03713917436 0.004298544843 -0.0004411974061)
(0.03528674693 0.01323053812 -0.003935118309)
(0.03398052031 0.01671378215 -0.005863897523)
(0.03020151857 0.0192285548 -0.009656270814)
(0.02569001493 0.01656759051 -0.01068150058)
(0.01599236394 0.01308979799 -0.01235539129)
(0.002153515745 0.00643915013 -0.01079279674)
(-0.02041214719 -0.0002631564583 -0.009612884196)
(-0.04527540259 -0.007394380429 -0.006265957754)
(-0.07140909292 -0.01274364658 -0.00291179549)
(-0.08798014317 -0.01645364282 0.001563959184)
(-0.09472571371 -0.01937095445 0.006305480527)
(-0.08574183306 -0.0196699365 0.01062356054)
(-0.06848759952 -0.01983673449 0.01546608829)
(-0.04039130775 -0.01667923063 0.01844596455)
(-0.008713010114 -0.01552554946 0.02198459115)
(0.03162652823 -0.01169347245 0.02166393802)
(0.07318356644 -0.01081297329 0.02027585377)
(0.1077699775 -0.005554653642 0.01271051922)
(0.131153707 -0.003563299725 0.00579504503)
(0.04138425035 0.0007874976122 -0.0002544456773)
(0.03811582995 0.004464956786 -0.003137835878)
(0.03500653633 0.00394333381 -0.004801345573)
(0.0295608881 0.004347339323 -0.008027823785)
(0.02340011717 0.0009597763257 -0.008884136381)
(0.01267485561 -0.002170593171 -0.01007618634)
(-0.001956721577 -0.007651901348 -0.008427680485)
(-0.02423682967 -0.01209907764 -0.007030563344)
(-0.04814574674 -0.01520468758 -0.003996876091)
(-0.07273899743 -0.01526927384 -0.001234789119)
(-0.08834008078 -0.01279271982 0.002319816158)
(-0.09399922553 -0.0096398296 0.006155586357)
(-0.0844159906 -0.004667078103 0.009774509146)
(-0.06629491423 -0.0006470424555 0.01414149461)
(-0.03803449814 0.005894049827 0.01716158523)
(-0.006451900306 0.009074242512 0.02083704956)
(0.03298773035 0.01353936503 0.02105240767)
(0.07387830694 0.01128673187 0.01982877902)
(0.1077524001 0.009986993876 0.01259320698)
(0.1307873153 0.002356307454 0.005655324261)
(0.0408854281 -0.002992007255 0.0001203743483)
(0.03748090574 -0.005263773293 -0.002008014491)
(0.03390613559 -0.01023220392 -0.003309397589)
(0.02810020738 -0.01219014541 -0.006138664609)
(0.02110558001 -0.01650688263 -0.006983863254)
(0.009936860085 -0.0192500815 -0.007931260589)
(-0.004820373341 -0.02358548837 -0.006205549089)
(-0.02570776816 -0.02503062199 -0.004633270407)
(-0.04748116317 -0.02354262218 -0.00193396391)
(-0.06968420344 -0.0174994608 0.0003057520334)
(-0.08399056047 -0.007857661422 0.003051634317)
(-0.0889993021 0.00286065858 0.006065714485)
(-0.07942718447 0.0148309152 0.009064318581)
(-0.0610794005 0.02426389844 0.01277416064)
(-0.03358616537 0.0344977153 0.01563724734)
(-0.003367945657 0.03921641212 0.01914471791)
(0.03312543378 0.04297319481 0.01967698361)
(0.07060903283 0.03624909535 0.01850999675)
(0.1014496102 0.02705330406 0.01190255621)
(0.1223065464 0.008716814578 0.005242873154)
(0.03561776809 -0.005957965434 0.0004571524789)
(0.03298830321 -0.01344830796 -0.0007788307121)
(0.03013861106 -0.02264198849 -0.001743789039)
(0.02513994883 -0.02770263695 -0.004114590951)
(0.01843289453 -0.03381450929 -0.005080911817)
(0.007696993746 -0.03690976294 -0.005833087098)
(-0.006011938361 -0.04000358896 -0.004231472853)
(-0.02417974696 -0.03811328686 -0.002656668783)
(-0.04280148925 -0.03169941297 -0.0003627804966)
(-0.06165790551 -0.01919495331 0.001428144746)
(-0.0739681656 -0.00170900432 0.003434954087)
(-0.07800070545 0.01747345909 0.005662743718)
(-0.0693406338 0.03753818398 0.007930188239)
(-0.05246017288 0.05297593992 0.0109825062)
(-0.02753437357 0.06656996146 0.01345736489)
(-0.0005180813511 0.07176682404 0.01655535501)
(0.03083064009 0.07330671465 0.01710715161)
(0.06255892623 0.06116238911 0.01611987888)
(0.08827451038 0.04354314819 0.01040324119)
(0.1053488229 0.01467727738 0.004534639123)
(0.02726411019 -0.007777888931 0.0006483835831)
(0.02569982248 -0.01893130275 5.210682842e-05)
(0.02387448968 -0.03166363033 -0.0005555208563)
(0.02022703416 -0.03997946903 -0.002455236447)
(0.01462117594 -0.04858379568 -0.003358007734)
(0.005582534146 -0.05257587766 -0.004000552446)
(-0.005655947398 -0.05462767014 -0.00261522828)
(-0.0198277283 -0.04972200066 -0.001286728721)
(-0.03410599724 -0.03876172347 0.0005725715627)
(-0.04851226036 -0.02018761565 0.001859854715)
(-0.05811521766 0.004624573457 0.003219946256)
(-0.06130830737 0.03183260228 0.004716603822)
(-0.05439218292 0.05944753269 0.006357695818)
(-0.04062601793 0.08077546609 0.008615644432)
(-0.02036316202 0.0974639173 0.01057309967)
(0.001345394503 0.102460395 0.01294180454)
(0.02558198255 0.1010361506 0.01343683172)
(0.04950811179 0.08320062533 0.01256987854)
(0.06857096036 0.05761941426 0.008150528927)
(0.08098296004 0.01961570724 0.003492780888)
(0.01683764156 -0.008660322146 0.0005468991544)
(0.01611911903 -0.02199970758 0.0004051171146)
(0.01529451342 -0.03717367052 4.307419094e-05)
(0.01319542228 -0.04821021911 -0.001179815486)
(0.009542871836 -0.05905582364 -0.001917651117)
(0.003442936089 -0.06403100021 -0.00232450133)
(-0.00397772797 -0.06526799728 -0.001427378264)
(-0.01294729258 -0.05813435336 -0.0004659473119)
(-0.02191767161 -0.04376149713 0.0006985920186)
(-0.03101901437 -0.02077263083 0.001512283177)
(-0.0372593983 0.009486768764 0.002271268342)
(-0.03932025663 0.0428832691 0.003169808254)
(-0.03482383389 0.07656034405 0.004138165409)
(-0.02566294917 0.1024540089 0.005576105047)
(-0.0122555927 0.1213154698 0.006803583445)
(0.001979227398 0.125473648 0.008300092391)
(0.01719989774 0.1209075936 0.008568485228)
(0.03184058913 0.09829252873 0.00799485438)
(0.04332292725 0.06693327121 0.005159286607)
(0.05059889105 0.02272710595 0.00220258428)
(0.00570406502 -0.008850072949 0.0002555088909)
(0.005620552948 -0.02312201429 0.000244146826)
(0.00544677987 -0.03961347901 0.0001628402125)
(0.004834084703 -0.05244752602 -0.0003109605253)
(0.003485202785 -0.06509909824 -0.0005848608783)
(0.001200511954 -0.07088181068 -0.0007707525443)
(-0.001520771258 -0.07170494742 -0.0003990365428)
(-0.004685984781 -0.06317602284 -6.82943354e-05)
(-0.007762124541 -0.04683253933 0.0003883340814)
(-0.01093574417 -0.02122337044 0.0006356014602)
(-0.01316684146 0.01258021283 0.0009040045479)
(-0.01392277722 0.05026641931 0.001176932763)
(-0.01229527389 0.08809700367 0.00152709388)
(-0.008998677404 0.1171260355 0.002008439256)
(-0.004098861683 0.1372622295 0.00246378465)
(0.001031919843 0.1403151741 0.00294844731)
(0.006314232919 0.1329533454 0.003050091226)
(0.01126837844 0.1069443977 0.002804882404)
(0.01507307048 0.07186749395 0.001817929851)
(0.01744744333 0.02426598967 0.0007548181766)
(0.01662377055 -0.001361764764 -0.008935673537)
(0.002732082229 -0.003162377239 -0.02625693043)
(-0.00429052724 -0.004731385772 -0.04930325396)
(-0.007699052235 -0.005471430695 -0.06672194876)
(0.005167787594 -0.005714327449 -0.07978737178)
(0.02356810824 -0.005280507222 -0.08003874883)
(0.04218927705 -0.004522879153 -0.0736649037)
(0.04179362068 -0.003691298144 -0.06278177716)
(0.02704220377 -0.002803648653 -0.05451617262)
(-0.007330610796 -0.001602113575 -0.0441056369)
(-0.03369495334 3.608380143e-05 -0.03352199936)
(-0.05174306753 0.001536723847 -0.01897984712)
(-0.04655538467 0.002444920665 -0.0004054889591)
(-0.04104276521 0.002535241346 0.02314460632)
(-0.03065914101 0.002049257639 0.05071146413)
(-0.02942352618 0.001662644891 0.07659197527)
(-0.01581575779 0.001865702561 0.09326435456)
(0.007225077698 0.002094316717 0.09206032776)
(0.03874990426 0.001830566273 0.06584905518)
(0.0630449039 0.0007761842774 0.02633474307)
(0.0134338378 -0.003822198773 -0.008571751647)
(0.0003326230312 -0.008736224169 -0.02516734918)
(-0.005934125542 -0.01304392717 -0.04736127843)
(-0.008400818423 -0.01493428912 -0.06413077823)
(0.005301305459 -0.01553221299 -0.07716500928)
(0.02441616478 -0.01429143777 -0.07784314174)
(0.0433218229 -0.01242213032 -0.07230927526)
(0.0430165832 -0.01029760012 -0.0618262098)
(0.0285279629 -0.008102365134 -0.05360487272)
(-0.005317254677 -0.004945241561 -0.04296759371)
(-0.03147209455 -0.000506318117 -0.03195805211)
(-0.05002674631 0.003667560007 -0.017079118)
(-0.04582693599 0.006244760739 0.001802101971)
(-0.04129206676 0.006573990593 0.02541658553)
(-0.03124829418 0.005388227926 0.05276594696)
(-0.0295343442 0.004496087413 0.07767740841)
(-0.01549678416 0.005226528544 0.09311978849)
(0.007195416821 0.006000372308 0.09086793522)
(0.03779407341 0.005265478079 0.06471122054)
(0.06114144771 0.002254109059 0.02570093895)
(0.007814646331 -0.005528314787 -0.007909887591)
(-0.00377591254 -0.01227690136 -0.02326932873)
(-0.008651783069 -0.01811404759 -0.04386553573)
(-0.009447538964 -0.02030253454 -0.0595526477)
(0.00563361959 -0.02071795177 -0.07244417457)
(0.02577960984 -0.01892121134 -0.07395332714)
(0.04502278801 -0.01668176935 -0.06989793795)
(0.04484154848 -0.01432196692 -0.06019946608)
(0.0308213911 -0.01198637826 -0.05202540246)
(-0.001969635897 -0.008098403794 -0.0409009164)
(-0.02762280713 -0.002245063114 -0.02910649523)
(-0.04696962707 0.00359755968 -0.01349348267)
(-0.04449260642 0.00730361255 0.005839100988)
(-0.04163326137 0.007825034109 0.02952748866)
(-0.03211898141 0.00643019635 0.05617622101)
(-0.02952706422 0.005567584018 0.07917571452)
(-0.01473359766 0.007136258018 0.09220460717)
(0.007262261436 0.008580594221 0.08816219987)
(0.03610727737 0.007784129525 0.06217444411)
(0.05767254472 0.00333533814 0.02439492038)
(0.0009514438659 -0.006219962389 -0.007145973396)
(-0.008545990669 -0.01332312101 -0.02095203863)
(-0.01157133848 -0.01916205182 -0.03963869022)
(-0.01022012812 -0.02054299641 -0.05396793253)
(0.006295134004 -0.02018451695 -0.06680262621)
(0.02728448144 -0.01801136148 -0.0692926114)
(0.04658296668 -0.01631728139 -0.06721860253)
(0.04632681071 -0.01494848594 -0.05849247867)
(0.03292024411 -0.0139257994 -0.05024260928)
(0.001556264886 -0.0108986945 -0.03840257184)
(-0.02322407477 -0.005450446867 -0.02530393884)
(-0.04327888116 0.0005345622153 -0.008689306376)
(-0.04282961994 0.004631339835 0.01127717965)
(-0.04189122474 0.005239949006 0.03474522921)
(-0.03283746759 0.004167205559 0.06015035842)
(-0.02902672942 0.003890267513 0.08017267488)
(-0.01334676265 0.006695559629 0.09004826372)
(0.007670493763 0.009055622524 0.08367640776)
(0.03410551525 0.008781745598 0.05824827629)
(0.05321494292 0.003809030462 0.02235440267)
(-0.005883715039 -0.005966623301 -0.006336342466)
(-0.01290926906 -0.01184775717 -0.01863370158)
(-0.01372094132 -0.01626869148 -0.03529955374)
(-0.01015049337 -0.01586049903 -0.04839197672)
(0.007441265936 -0.01416613215 -0.06110259572)
(0.02853313657 -0.0117732393 -0.06472910016)
(0.04720295621 -0.01128614185 -0.06464356583)
(0.04653030978 -0.01194207054 -0.05698700987)
(0.03368309063 -0.0134692009 -0.04858330991)
(0.004016635482 -0.0128525897 -0.03571971767)
(-0.01954947146 -0.009494031488 -0.0211968745)
(-0.03983725994 -0.005128948646 -0.003182999735)
(-0.04115103223 -0.001918410279 0.01732948394)
(-0.04193684847 -0.00161708516 0.04020639908)
(-0.03306035473 -0.001950653008 0.06342508977)
(-0.02772780141 -0.001332935089 0.07991802121)
(-0.01105941744 0.003016836675 0.0861051507)
(0.008757131688 0.006501257558 0.07742108905)
(0.03242147743 0.007609081698 0.05287486086)
(0.04869460705 0.003346666018 0.01979252936)
(-0.01153040541 -0.004885512677 -0.005618533862)
(-0.01582384855 -0.008262770497 -0.01646337571)
(-0.01438459152 -0.01020862832 -0.03145064656)
(-0.008722542431 -0.007345337063 -0.04340392091)
(0.009199384933 -0.003992263001 -0.05613020782)
(0.02933913926 -0.001435611503 -0.06070876243)
(0.04648144125 -0.002586346113 -0.06246986144)
(0.04479063894 -0.005869336734 -0.05578533385)
(0.03228515844 -0.01067499965 -0.0471026104)
(0.004376564232 -0.01353549074 -0.03307943589)
(-0.01775869747 -0.01363238144 -0.0168761103)
(-0.03790554494 -0.01230401204 0.002377621305)
(-0.04032277024 -0.01112435962 0.02337984479)
(-0.04188712719 -0.0119052393 0.04508327337)
(-0.03261947218 -0.01169998845 0.06565275073)
(-0.02549881093 -0.01027514186 0.07813241334)
(-0.007783011176 -0.004446076967 0.08066278387)
(0.01093897691 0.0003609502293 0.06986398524)
(0.03189886133 0.003823192724 0.04673445047)
(0.0453884763 0.001819318632 0.01690804475)
(-0.01508266783 -0.003080123144 -0.004931461773)
(-0.01668565862 -0.003085617877 -0.01456666967)
(-0.01306390263 -0.001830524535 -0.02817579005)
(-0.005760176294 0.003713230091 -0.03932676709)
(0.01162322238 0.008739289744 -0.05201860602)
(0.02954235321 0.01127978106 -0.05743473296)
(0.04408764875 0.008339420482 -0.06060747489)
(0.04082555509 0.002254556655 -0.05463361685)
(0.02828285575 -0.006101893823 -0.04573668077)
(0.001949070204 -0.01282554251 -0.03050151535)
(-0.01866326592 -0.01724594892 -0.01289585357)
(-0.03803226921 -0.01973356515 0.007415319773)
(-0.04084028363 -0.02123179235 0.02838821662)
(-0.04231611735 -0.02375207186 0.04864691365)
(-0.03189186942 -0.0235613937 0.06629048188)
(-0.02258543287 -0.02189917749 0.07508022163)
(-0.003513606901 -0.01496570479 0.07440806255)
(0.01462904705 -0.008795084417 0.0621952978)
(0.03348072079 -0.002237845536 0.04058351459)
(0.04463100537 -0.0007043661805 0.01422706817)
(-0.01581248155 -0.0008097616803 -0.004330890734)
(-0.01497952982 0.003278300553 -0.01292495894)
(-0.00958699588 0.007761663404 -0.02553901938)
(-0.001272139308 0.0156949512 -0.036197699)
(0.01454012316 0.02183867127 -0.04900028377)
(0.02906764769 0.02419216658 -0.05484848221)
(0.04011715762 0.01960167563 -0.05881106103)
(0.03459816288 0.01112417313 -0.05324127794)
(0.02165512552 -0.0004640596025 -0.04398339957)
(-0.003472894524 -0.01096057439 -0.02791493298)
(-0.02261717341 -0.01968512491 -0.009147745419)
(-0.04068359428 -0.02631035954 0.01167485876)
(-0.04313285482 -0.03085721344 0.03235003865)
(-0.04350817775 -0.03533289214 0.05091614302)
(-0.03129602116 -0.0357720855 0.06582607467)
(-0.01941068016 -0.034333348 0.07151654583)
(0.001501781077 -0.02695861612 0.06849758467)
(0.01996275218 -0.01955223815 0.05553733755)
(0.03765785975 -0.009700403227 0.03552829706)
(0.04741134927 -0.003822601381 0.01208981781)
(-0.01328090016 0.001882447969 -0.003807297149)
(-0.01069578133 0.01010323388 -0.01160160099)
(-0.004311788638 0.01739259691 -0.02351256025)
(0.004152822731 0.02700595363 -0.03392667571)
(0.01760920545 0.0331641181 -0.04655769445)
(0.02796510379 0.03511482597 -0.05250415822)
(0.0348627477 0.02922038774 -0.05670962187)
(0.02665937798 0.01916108942 -0.05129912816)
(0.01271363496 0.005285417526 -0.04195050721)
(-0.01160594422 -0.008379612531 -0.02540567121)
(-0.02948116898 -0.0208368401 -0.006234459988)
(-0.04588853311 -0.03113845971 0.01474549206)
(-0.0471836851 -0.03849315097 0.03474161903)
(-0.0457682778 -0.04471495478 0.05179258988)
(-0.03117740309 -0.0460230152 0.06443777341)
(-0.01634845505 -0.04522290461 0.06815213858)
(0.00695024889 -0.03790722558 0.06390628314)
(0.02685355762 -0.02989058954 0.05094530816)
(0.04465327102 -0.01708331901 0.03228430696)
(0.0541580238 -0.006978284796 0.01089305357)
(-0.007305410222 0.004500648999 -0.003468348969)
(-0.004113243956 0.01635308251 -0.01073945973)
(0.002321468483 0.02561190397 -0.02208218585)
(0.009824681167 0.03593532114 -0.03218679818)
(0.02024348345 0.04097400258 -0.04427728089)
(0.02627768681 0.04227253882 -0.0499120464)
(0.02885181316 0.03546774492 -0.05371782276)
(0.01769996906 0.02475258494 -0.04843553508)
(0.00223909551 0.009677635273 -0.0391456078)
(-0.02189779449 -0.005954706594 -0.02292040595)
(-0.0386601908 -0.02095850278 -0.003911557983)
(-0.05312216108 -0.03392588401 0.01642516834)
(-0.05268834341 -0.0433103104 0.03558528684)
(-0.04881119435 -0.05069303893 0.05122671221)
(-0.03165271741 -0.05249586962 0.06242367879)
(-0.01367543657 -0.05236343794 0.0652644582)
(0.01234467135 -0.04544230638 0.06099540604)
(0.03470328333 -0.03746622627 0.04866568651)
(0.05391738592 -0.02272082143 0.03107128326)
(0.06441144322 -0.009458845695 0.01061120422)
(0.001470726654 0.006460764044 -0.003392824873)
(0.004107389794 0.02078365094 -0.01039139971)
(0.009479196167 0.03089622223 -0.02133595219)
(0.01495353526 0.0406817848 -0.03086467988)
(0.02206035316 0.04412251012 -0.04203805502)
(0.02407020883 0.044484755 -0.04686489758)
(0.02249410372 0.03727114644 -0.04999848943)
(0.008456882986 0.02672517077 -0.0446428499)
(-0.008936673481 0.0116477654 -0.03585972614)
(-0.03320740805 -0.004378599654 -0.02033183734)
(-0.04918876593 -0.02015514492 -0.00242473317)
(-0.0616430434 -0.03429042486 0.01697314287)
(-0.05898908203 -0.04434083257 0.03503070148)
(-0.05224312334 -0.05201359025 0.04966400784)
(-0.03236182909 -0.0536002953 0.0601476395)
(-0.01137655931 -0.05386281972 0.06318360431)
(0.0174695834 -0.04741704045 0.05984620747)
(0.04292498071 -0.04016083975 0.04859474793)
(0.06451597315 -0.02494045521 0.03156932571)
(0.07690986607 -0.0106471109 0.0111036585)
(0.01194095358 0.007310123575 -0.003439699891)
(0.01302825354 0.02239741203 -0.01030353546)
(0.01633020196 0.03186136582 -0.0206389879)
(0.01911886276 0.04031191932 -0.02931532253)
(0.02290959059 0.04190504939 -0.03900999302)
(0.02143810513 0.0414226207 -0.04283144794)
(0.01632269267 0.03418387094 -0.04488834694)
(-0.0003730395139 0.02460776689 -0.03969910025)
(-0.01968711764 0.01062670249 -0.03150474382)