/*--------------------------------*- C++ -*----------------------------------*\
| =========                 |                                                 |
| \\      /  F ield         | OpenFOAM: The Open Source CFD Toolbox           |
|  \\    /   O peration     | Version:  5.x                                   |
|   \\  /    A nd           | Web:      www.OpenFOAM.org                      |
|    \\/     M anipulation  |                                                 |
\*---------------------------------------------------------------------------*/
FoamFile
{
    version     2.0;
    format      ascii;
    class       volScalarField;
    location    "5.6";
    object      p;
}
// * * * * * * * * * * * * * * * * * * * * * * * * * * * * * * * * * * * * * //

dimensions      [1 -1 -2 0 0 0 0];

internalField   nonuniform List<scalar> 
30538
(
101292.2075
101277.2993
101273.8507
101267.3057
101259.2735
101248.5852
101244.9847
101250.9605
101266.6559
101285.4596
101305.9518
101325.1763
101339.3062
101344.4143
101343.1853
101336.4731
101326.8343
101315.7239
101306.2357
101301.3194
101293.1616
101278.7608
101273.2474
101264.3802
101255.8417
101246.5531
101245.2191
101252.5571
101268.1132
101285.1679
101301.6599
101316.5098
101330.3577
101341.421
101348.983
101348.5771
101338.054
101321.2063
101305.5202
101298.6565
101294.6784
101281.0422
101271.3977
101258.7336
101249.725
101243.4464
101244.5386
101252.5865
101267.9534
101283.8468
101297.6103
101308.1641
101321.2547
101338.4536
101355.3147
101363.2567
101352.6532
101328.6988
101305.3706
101295.1729
101296.5285
101283.8284
101267.7373
101251.1947
101243.2459
101240.178
101242.2663
101249.5445
101264.6587
101281.3963
101296.0742
101306.3553
101319.2417
101337.6827
101357.5852
101370.6358
101362.0145
101335.0978
101307.2478
101293.8931
101297.5995
101285.4225
101264.827
101246.1355
101239.3813
101237.642
101239.056
101244.6161
101259.3468
101278.4075
101297.249
101311.128
101323.7661
101338.0275
101353.7655
101367.7129
101363.1283
101339.3894
101311.5647
101296.2416
101297.1044
101284.1143
101264.0856
101245.8408
101238.4222
101235.1322
101235.8703
101240.5634
101255.0979
101275.8005
101298.7856
101317.2548
101329.9681
101338.0533
101346.6521
101357.6908
101357.9064
101342.0435
101319.3432
101302.3011
101295.1743
101280.2858
101264.6895
101248.779
101239.0276
101232.2895
101233.387
101238.9013
101253.1096
101273.504
101298.3647
101320.3177
101333.9063
101337.7559
101340.4162
101347.6192
101351.3797
101344.6935
101328.7705
101309.9594
101293.3564
101275.717
101265.4942
101252.2469
101239.0334
101229.5677
101232.4846
101239.4685
101252.4504
101270.4239
101294.929
101319.4289
101335.6485
101339.4174
101338.8439
101340.3821
101344.9874
101346.3979
101338.5209
101317.5837
101293.0087
101272.96
101266.2735
101253.9716
101238.3274
101228.311
101233.496
101241.1846
101251.6752
101266.6602
101290.2578
101317.308
101337.508
101344.1416
101341.4344
101335.6441
101337.9111
101345.2561
101344.6569
101323.0276
101294.4893
101274.1324
101266.4637
101253.3818
101237.9471
101229.9341
101236.9911
101243.7884
101251.1223
101263.6345
101286.6964
101315.481
101339.8349
101350.3438
101345.4999
101332.5328
101330.6014
101340.1842
101343.9725
101323.8462
101296.1668
101277.5418
101266.4614
101252.1978
101239.8086
101235.2144
101242.209
101247.0034
101252.3756
101264.071
101286.0817
101314.3232
101339.3152
101352.0512
101346.7435
101331.0429
101325.6566
101332.7211
101335.745
101319.1278
101296.3203
101279.9271
101266.7195
101252.7142
101245.1963
101243.4445
101248.1387
101250.9053
101256.4456
101268.4503
101288.055
101311.0691
101332.2471
101345.0583
101342.9514
101331.6766
101325.496
101325.6547
101322.47
101310.4235
101294.5181
101280.0797
101267.917
101256.5702
101254.0515
101253.6238
101254.2566
101255.4383
101262.6306
101275.4757
101291.3451
101305.6363
101319.1919
101330.518
101334.7351
101333.4239
101329.5368
101320.6671
101308.8479
101301.0907
101292.1377
101279.0297
101270.6495
101263.4121
101264.9088
101263.8996
101260.7644
101260.2584
101268.7729
101281.81
101293.7725
101300.3446
101306.1419
101314.9172
101325.3719
101334.4438
101333.6518
101317.632
101298.378
101294.4648
101290.898
101278.9651
101274.7569
101271.487
101274.9869
101272.6973
101267.5046
101265.5492
101273.2714
101285.0882
101294.6391
101298.0486
101298.8366
101304.7014
101317.2684
101331.9285
101332.7595
101315.0097
101293.9779
101292.3026
101291.5847
101281.1647
101280.1527
101279.1864
101281.9721
101279.3217
101274.5101
101271.1248
101276.1066
101285.5378
101294.5179
101299.1502
101299.7238
101302.1131
101312.2541
101325.4659
101326.2408
101311.3363
101294.1331
101293.3857
101293.9285
101285.5669
101285.9509
101284.7346
101285.5664
101283.8367
101281.1575
101277.0609
101278.5377
101284.9983
101294.6532
101303.0472
101306.4386
101305.5313
101308.9985
101315.4848
101315.8935
101307.0532
101296.469
101296.446
101296.5167
101290.7154
101291.1458
101288.813
101287.338
101287.0975
101287.0867
101283.6078
101282.4798
101286.4917
101294.8052
101304.1788
101309.753
101308.0993
101307.0437
101307.0043
101306.8181
101303.3828
101298.3938
101298.8196
101298.4727
101295.2285
101295.6477
101293.1112
101290.0701
101290.8276
101292.6181
101290.6323
101288.5386
101289.805
101295.4772
101302.1666
101307.2587
101307.4591
101305.4324
101302.8277
101302.239
101300.8441
101298.3102
101299.5134
101299.4913
101298.7588
101299.198
101296.6813
101295.5773
101297.3404
101297.7608
101296.8499
101295.9335
101296.056
101297.947
101301.2545
101302.9029
101303.6129
101302.5117
101299.9189
101300.1451
101299.9605
101298.6652
101300.3604
101294.6775
101280.6012
101274.0393
101264.9395
101259.2234
101253.1049
101252.5342
101255.7149
101267.475
101283.5539
101302.2483
101319.0169
101333.118
101341.5098
101343.9247
101339.9818
101332.1967
101322.0974
101311.4982
101302.9368
101294.5564
101280.4026
101274.4023
101264.9647
101258.2505
101251.8033
101251.9677
101255.7733
101267.6759
101283.3695
101300.6996
101315.464
101328.5554
101338.7201
101345.2377
101345.2776
101337.5414
101324.6424
101311.6771
101302.1107
101294.549
101280.1727
101273.683
101262.9996
101255.3038
101249.0359
101250.0874
101254.4231
101266.4613
101282.2977
101299.2874
101312.4318
101324.0707
101335.9127
101347.1702
101352.0984
101344.7619
101328.1355
101311.76
101301.0688
101294.8938
101280.1866
101271.3101
101258.8281
101250.9361
101245.0853
101246.6042
101251.0108
101263.4153
101280.2331
101298.4203
101311.9923
101323.1869
101335.3896
101348.5153
101356.5577
101349.7644
101331.1623
101312.4729
101300.4811
101295.3667
101280.4378
101268.5377
101254.7541
101247.1097
101240.9333
101242.0348
101246.3369
101259.5484
101277.8421
101298.2976
101314.0274
101325.3836
101336.3725
101348.3099
101357.045
101351.4336
101333.2342
101313.9652
101300.921
101295.4962
101280.356
101266.597
101252.4151
101244.5963
101236.8939
101237.1975
101242.2809
101256.8365
101275.8424
101297.9859
101315.7929
101327.9821
101337.1915
101346.8618
101354.4995
101350.5124
101334.941
101316.8781
101302.8677
101295.0715
101279.6512
101265.7347
101251.7498
101243.1139
101233.1794
101233.1996
101240.2259
101256.1374
101274.5687
101296.7374
101315.7405
101329.4835
101337.5661
101345.0654
101351.4897
101348.9826
101336.898
101320.7138
101305.6378
101294.3075
101278.1175
101265.78
101252.0366
101241.8923
101230.4392
101231.3799
101240.4799
101256.5872
101273.3915
101294.2043
101313.9131
101329.8767
101338.2284
101344.0966
101348.4366
101346.8173
101338.1592
101324.8737
101308.7258
101293.6919
101276.4948
101266.1063
101252.7028
101241.1478
101229.8802
101232.8316
101242.4416
101256.7933
101271.3995
101291.2476
101311.8369
101330.0805
101339.7576
101344.0809
101345.148
101342.702
101337.1063
101327.4257
101311.1507
101293.6737
101275.6361
101266.8288
101253.7889
101241.5937
101232.1863
101237.4619
101245.6523
101256.5165
101269.0681
101288.7106
101310.2535
101329.9699
101341.4607
101344.5429
101341.804
101337.3911
101333.4018
101326.4552
101311.5949
101294.1952
101276.4483
101268.2005
101255.5395
101244.2557
101237.5441
101244.1283
101249.5638
101256.7183
101268.0053
101287.5399
101309.0576
101328.4591
101340.1648
101343.2921
101338.2328
101332.1917
101328.3017
101322.2628
101309.8811
101295.0413
101278.5906
101270.0156
101257.9803
101249.5036
101245.08
101251.2563
101253.9181
101258.6533
101269.0971
101287.7958
101307.5317
101324.4564
101335.0009
101338.5208
101334.6104
101328.8283
101323.8196
101316.8919
101306.8464
101295.6314
101281.061
101271.8254
101261.1861
101256.8437
101254.0105
101257.9808
101258.6711
101262.4456
101271.8983
101288.8108
101305.5338
101318.5849
101326.5724
101330.5558
101330.0842
101326.7042
101320.8797
101312.6885
101304.2903
101295.6443
101282.4275
101273.6653
101265.258
101265.1733
101263.3135
101264.4481
101263.8541
101267.2169
101275.0549
101289.5373
101303.5533
101313.2399
101318.1022
101321.6213
101324.6034
101324.5796
101319.0808
101310.3498
101303.0238
101295.2967
101282.8929
101276.0312
101270.1449
101273.141
101272.0964
101271.0392
101269.1604
101271.7968
101277.7844
101289.7665
101302.0223
101309.8087
101312.4184
101314.4444
101318.7632
101320.8978
101316.9062
101309.0612
101302.7325
101294.9767
101283.6139
101279.7739
101276.0878
101279.6738
101279.3937
101277.4973
101274.2216
101275.6513
101280.4317
101290.2235
101300.7446
101308.0608
101309.7237
101310.6288
101313.8449
101315.8376
101313.2555
101307.4306
101302.1962
101295.4254
101286.1503
101285.1066
101282.4614
101284.6127
101284.9107
101283.3788
101278.8582
101279.1758
101283.922
101291.9206
101299.9476
101306.4867
101308.8701
101309.612
101310.1954
101310.3031
101308.4486
101304.3494
101301.0156
101296.5164
101290.1567
101291.2481
101289.2324
101288.3944
101288.8768
101288.4029
101283.9918
101283.5747
101288.5616
101294.7808
101299.3179
101303.6281
101307.2977
101309.1034
101307.67
101305.8502
101304.003
101300.8782
101299.5398
101298.0194
101294.4362
101296.4384
101295.5588
101292.3397
101292.582
101293.0771
101290.0145
101289.3879
101293.5773
101297.7194
101298.5307
101300.4941
101304.3333
101307.0995
101305.8767
101303.2243
101300.9852
101298.6845
101298.6016
101299.3569
101298.5261
101299.7091
101297.7992
101297.0181
101297.5944
101297.6714
101296.4092
101296.2541
101298.1952
101299.6696
101299.2165
101299.1442
101301.6385
101303.2678
101302.3804
101301.2485
101299.8712
101298.3817
101299.3105
101297.6107
101285.1669
101278.0511
101266.7771
101263.1902
101259.716
101265.3519
101265.7214
101270.5323
101280.9726
101297.8874
101312.9516
101325.0768
101335.6766
101342.6685
101342.0721
101334.5339
101324.3009
101314.2095
101304.5708
101296.7426
101283.6706
101279.2239
101269.623
101264.7863
101259.6191
101264.0424
101264.4243
101270.4142
101281.5468
101299.0889
101314.4424
101325.0073
101332.9138
101338.9507
101340.1033
101334.4806
101325.2025
101315.2651
101305.1689
101295.5756
101281.4272
101279.3384
101271.3113
101265.0077
101257.6954
101260.8308
101261.5563
101269.3813
101281.689
101300.4181
101316.2502
101325.5295
101330.6075
101335.7788
101338.7422
101335.1781
101326.5743
101316.4752
101306.04
101294.7315
101278.9371
101277.8469
101270.4046
101263.0904
101253.7845
101255.7723
101257.591
101267.7555
101280.9878
101300.6114
101316.9654
101326.568
101331.0005
101336.2922
101340.1611
101337.2089
101328.0643
101317.2395
101306.4636
101294.6302
101277.4665
101274.4044
101266.4251
101259.889
101248.9546
101249.1964
101252.8316
101265.7391
101279.7069
101298.9937
101315.8113
101327.4631
101333.8389
101340.0984
101343.9712
101339.8764
101329.0961
101317.1053
101305.8906
101295.3736
101278.2304
101270.8022
101260.9387
101256.3223
101244.3388
101241.922
101248.0844
101264.6858
101279.1
101296.4698
101312.4445
101327.3374
101337.1945
101345.1503
101348.6065
101342.6417
101329.7845
101316.3458
101304.7288
101296.6852
101281.6058
101268.8274
101256.3155
101253.077
101240.5563
101235.7518
101244.7156
101264.8095
101279.5859
101294.1899
101308.8438
101326.2455
101339.3873
101348.4194
101351.6147
101344.3357
101330.0816
101315.6116
101303.5488
101297.569
101284.6093
101268.6537
101253.6536
101250.7755
101238.0486
101233.1245
101243.8858
101266.237
101280.8975
101293.0101
101306.6092
101325.1816
101339.861
101348.8675
101351.5166
101344.1534
101329.7786
101315.1977
101302.6282
101296.7497
101283.9834
101269.1337
101253.582
101249.6335
101237.6311
101234.9921
101245.6816
101266.4842
101280.1829
101291.8198
101305.2245
101323.7053
101338.1199
101346.0924
101348.9597
101342.187
101328.8574
101314.6856
101301.9966
101294.5669
101279.6048
101269.8873
101256.1412
101250.2493
101239.4104
101240.7582
101249.4016
101265.7324
101277.1408
101290.4198
101303.9427
101321.1551
101334.2608
101341.929
101345.4762
101339.7774
101327.3586
101313.5877
101301.7127
101293.4788
101276.5134
101271.3427
101260.6354
101253.3071
101243.4092
101248.196
101254.0728
101264.5234
101273.7199
101288.6085
101303.5927
101318.7567
101329.3844
101336.7011
101340.9173
101336.5679
101325.5405
101312.3759
101301.9713
101294.7951
101277.48
101273.4616
101265.3251
101258.3289
101249.1188
101254.8835
101258.9174
101264.9122
101271.3036
101287.2288
101304.5807
101318.3287
101325.065
101330.5863
101334.448
101332.2575
101323.987
101312.8027
101303.0115
101297.8544
101282.2779
101275.6702
101268.431
101264.2881
101256.0314
101260.4148
101263.9253
101267.5586
101270.94
101285.9411
101305.9299
101319.2628
101322.083
101323.6321
101325.9286
101326.2271
101322.5923
101315.1623
101305.3689
101300.3205
101287.014
101277.4242
101269.7868
101269.7296
101263.7096
101266.0266
101269.0347
101271.8734
101272.338
101285.1259
101306.0725
101319.8825
101320.4033
101317.2595
101316.494
101319.1401
101321.0141
101318.4187
101308.7114
101300.4626
101288.4076
101279.1608
101270.9203
101274.2823
101271.6839
101272.788
101274.0353
101275.7569
101274.8771
101285.2583
101304.1295
101318.0397
101318.762
101312.8603
101309.1409
101312.2848
101317.9809
101319.5726
101310.6743
101298.2684
101286.8436
101281.954
101275.0986
101278.4663
101278.9231
101280.3761
101278.8295
101278.3572
101278.4276
101287.2258
101300.7369
101312.4302
101315.522
101311.0837
101305.9996
101307.4709
101313.3037
101316.9018
101309.7277
101295.9969
101285.6967
101286.5349
101283.0045
101282.9731
101284.5248
101287.6313
101282.9848
101280.1701
101283.1326
101291.2855
101297.4957
101304.11
101310.302
101311.3219
101307.3231
101305.11
101307.6322
101310.2642
101305.7127
101295.3651
101287.215
101292.5362
101292.6269
101288.236
101288.8836
101293.0576
101287.1399
101283.0999
101288.7779
101296.7621
101296.7986
101297.3098
101304.9376
101311.1152
101309.7692
101304.3872
101302.6357
101303.3544
101301.1427
101296.831
101291.1806
101297.3907
101300.9949
101293.8963
101293.0441
101296.6393
101292.1262
101288.3559
101294.7812
101301.0528
101298.1895
101295.4286
101300.6225
101307.8772
101308.9438
101303.6646
101300.1067
101299.7736
101298.655
101299.0818
101297.2536
101299.8376
101300.4402
101298.0932
101297.2054
101298.987
101296.7587
101295.5799
101299.0081
101301.5912
101298.8535
101297.0993
101299.2465
101302.9524
101304.4152
101301.927
101299.5278
101298.9085
101298.6202
101300.0724
101289.9767
101285.394
101275.6397
101276.7999
101269.312
101281.0205
101283.4667
101283.0884
101280.5619
101291.6754
101306.5702
101317.8767
101326.3111
101335.3476
101340.467
101334.1909
101321.4009
101310.016
101301.7274
101299.8697
101289.6736
101286.6815
101278.9067
101278.4004
101270.019
101277.6844
101278.9687
101282.461
101283.5234
101295.8278
101311.001
101321.9164
101326.497
101330.606
101333.2886
101329.493
101321.2907
101313.2435
101304.5845
101299.422
101288.2492
101287.666
101281.4597
101278.7637
101269.0972
101272.4862
101272.7111
101280.7466
101286.6463
101300.6324
101315.7877
101326.5385
101327.8947
101326.7235
101325.8155
101324.8867
101322.283
101317.9734
101308.6253
101298.6286
101285.4366
101287.5517
101281.7472
101277.6277
101266.7604
101265.8551
101266.9513
101279.2739
101288.7605
101302.8072
101316.4009
101328.3849
101330.644
101327.9086
101324.5129
101324.389
101324.624
101322.0024
101311.4762
101297.6899
101281.7972
101283.9451
101276.954
101275.0775
101264.2059
101258.7444
101261.1655
101278.5727
101289.9163
101301.7757
101312.6485
101327.384
101334.7589
101334.6724
101330.0461
101328.153
101327.0952
101323.4418
101311.6099
101297.505
101280.0655
101278.2499
101268.6302
101271.7658
101262.2166
101251.5843
101254.2693
101277.5529
101290.9451
101298.5253
101306.5229
101324.1242
101339.0008
101343.3842
101338.7397
101333.5045
101328.3848
101321.67
101309.1006
101298.7179
101283.2373
101275.0321
101261.2075
101268.8048
101261.0747
101245.8709
101247.3951
101276.4208
101293.0018
101296.6175
101300.8301
101321.1051
101342.167
101350.0551
101345.1664
101336.9663
101327.629
101318.115
101305.5709
101300.6238
101288.6186
101275.226
101257.6236
101266.1563
101259.958
101243.8278
101244.1932
101275.3169
101297.9002
101298.3438
101299.0733
101319.0514
101342.6997
101351.7791
101346.6791
101337.2659
101325.8452
101314.2934
101302.6088
101300.6827
101289.6592
101276.2648
101257.7891
101264.1202
101258.4859
101245.4123
101245.0897
101274.0755
101296.9056
101299.2681
101299.6191
101317.9474
101339.5315
101348.0006
101344.3641
101336.3092
101324.795
101311.8435
101300.5689
101298.3788
101284.979
101277.1454
101261.1028
101263.716
101257.0613
101249.4276
101249.5196
101272.7453
101289.436
101297.4721
101299.2162
101315.1894
101332.6453
101340.4646
101340.5921
101335.9152
101325.3405
101311.2992
101299.9738
101296.9166
101280.3823
101276.9619
101266.0655
101266.4919
101257.268
101253.1758
101255.3549
101272.9679
101283.7764
101293.9308
101299.3333
101313.3173
101325.2681
101332.1388
101335.8578
101335.2346
101326.3601
101311.9996
101300.7506
101297.8191
101279.6779
101276.2844
101270.8215
101272.3058
101259.9484
101255.4163
101260.211
101275.3175
101281.4428
101290.3559
101301.4037
101314.8898
101321.6376
101325.0886
101329.4631
101332.1909
101326.567
101313.7462
101302.6152
101301.0292
101284.9314
101276.8158
101273.2902
101278.7583
101264.7864
101256.5994
101263.3022
101279.6171
101282.8525
101287.9571
101302.1551
101318.2379
101322.0562
101320.6226
101322.1746
101326.072
101324.91
101316.0645
101304.9896
101303.3316
101291.035
101279.291
101273.4136
101282.2508
101270.927
101261.3329
101267.5745
101285.0726
101285.8458
101285.9178
101300.1547
101320.1284
101324.316
101318.1804
101314.4912
101317.9988
101321.6356
101317.9398
101307.6422
101303.0936
101293.4131
101283.2168
101274.0296
101282.3371
101277.0427
101270.4787
101274.6789
101288.8897
101287.5142
101285.3449
101297.0132
101317.3011
101323.5216
101316.742
101309.607
101310.5341
101316.6346
101317.682
101309.3111
101300.1136
101290.7085
101287.414
101279.1097
101281.0672
101280.2687
101282.0884
101284.043
101289.1214
101286.4792
101287.7335
101295.9855
101309.6289
101316.7365
101314.2575
101308.719
101306.8009
101311.0108
101314.3876
101308.8999
101297.4629
101287.1062
101291.308
101288.862
101281.9701
101280.8445
101293.3838
101292.8366
101286.1189
101283.8194
101292.5709
101298.5004
101301.284
101305.8053
101311.1623
101311.3254
101306.9347
101305.5707
101308.8634
101305.9897
101297.0408
101286.4934
101295.4259
101299.0939
101285.9496
101281.6177
101299.4392
101299.0677
101284.3378
101281.879
101298.263
101304.8799
101297.4646
101296.6561
101306.995
101313.422
101307.9314
101301.8036
101303.3366
101302.4638
101299.0313
101290.0049
101297.4954
101306.908
101292.5753
101285.7721
101301.2504
101302.9943
101287.6766
101284.9047
101302.2238
101310.7377
101299.4768
101292.9536
101302.1177
101310.4283
101306.7653
101300.6271
101301.3049
101300.2983
101300.8411
101296.2072
101299.3774
101304.5562
101297.5663
101293.921
101300.7267
101300.4846
101294.6704
101295.0574
101302.4163
101304.992
101300.1887
101295.4904
101298.9452
101304.6814
101303.392
101300.1315
101300.2571
101299.1918
101303.8617
101297.2527
101295.5391
101289.1632
101305.9421
101292.4809
101291.0234
101299.8978
101309.9571
101292.7503
101290.192
101300.763
101310.0286
101314.4019
101323.8314
101332.8558
101331.3084
101317.5656
101304.0362
101297.981
101305.1774
101298.7266
101294.8962
101289.1969
101301.5434
101290.9674
101287.0366
101291.5473
101306.0319
101297.7105
101296.4135
101306.6666
101318.4506
101321.9431
101323.0111
101324.355
101322.9484
101315.7273
101308.6424
101302.5894
101306.5555
101299.8284
101296.2299
101290.1411
101295.8427
101287.8206
101283.5841
101282.1863
101299.2844
101300.9462
101302.3808
101312.1921
101327.2079
101331.421
101323.0952
101315.3824
101314.4726
101315.8159
101315.999
101309.4027
101306.6851
101298.7862
101299.0219
101291.9364
101291.3447
101284.5189
101280.1196
101274.5697
101291.6353
101302.6566
101305.0159
101309.215
101329.4438
101338.0445
101327.0503
101313.163
101311.6701
101318.8313
101323.158
101314.7565
101304.0792
101293.5739
101298.8661
101289.4503
101286.5281
101282.7023
101277.5629
101269.0232
101284.3742
101304.6136
101307.9271
101303.2844
101323.9828
101339.4338
101333.6611
101319.1176
101316.0284
101323.1726
101326.8845
101316.3554
101299.3762
101286.3169
101294.2734
101282.0649
101281.3314
101282.7287
101275.3226
101264.0188
101278.3483
101306.3357
101314.7237
101303.6838
101314.7675
101335.7655
101339.969
101329.5464
101324.2146
101326.4231
101326.3956
101313.9522
101296.289
101282.7178
101289.4962
101274.7177
101277.7455
101284.5772
101274.06
101257.4254
101273.0303
101306.9571
101319.0051
101306.8614
101309.6205
101332.649
101344.4888
101338.0698
101330.1048
101326.9079
101322.7722
101309.6976
101296.9427
101283.802
101288.0983
101271.6568
101274.9355
101285.7061
101273.8096
101251.7756
101271.1486
101303.7221
101323.466
101313.0477
101310.8542
101332.1327
101347.1529
101342.1612
101331.8858
101325.2192
101318.1478
101305.5595
101299.3711
101286.4972
101288.9881
101272.1149
101272.0889
101282.7472
101272.3582
101249.6471
101266.8868
101301.9185
101324.251
101315.2103
101312.9266
101330.8841
101345.6687
101341.2166
101331.1736
101324.2248
101315.4468
101303.1877
101301.3417
101289.2061
101289.7025
101274.1733
101270.8207
101276.7999
101268.9213
101251.6917
101267.0866
101301.6219
101321.419
101311.6544
101309.9124
101325.5832
101339.1109
101337.509
101331.2275
101325.3396
101315.704
101303.2479
101302.0706
101289.5923
101287.2386
101275.1354
101274.1144
101272.7762
101264.2717
101255.1616
101270.5686
101296.8711
101313.7306
101305.7376
101306.1289
101321.2899
101332.188
101332.9491
101331.1231
101327.0802
101316.9356
101304.3093
101300.6527
101287.811
101282.3435
101274.319
101281.9117
101274.8912
101260.7795
101255.4732
101275.6369
101294.0374
101305.2575
101298.0946
101306.9069
101321.5673
101328.8706
101328.7367
101329.1303
101326.7885
101317.3386
101304.8522
101299.0889
101287.1617
101279.9291
101273.6299
101292.6703
101282.4804
101258.0703
101254.5698
101281.9349
101302.3052
101300.0746
101291.6148
101309.2281
101325.3922
101327.9175
101324.5603
101324.2824
101323.5635
101316.1758
101304.4103
101298.4229
101289.9037
101282.4675
101275.1952
101296.0547
101288.8625
101263.2792
101258.3355
101290.6844
101309.5106
101299.3211
101289.8086
101309.4216
101326.5023
101326.1526
101319.895
101317.9117
101318.3933
101313.1939
101303.4028
101299.3063
101294.17
101289.7614
101280.5072
101290.214
101289.735
101274.9217
101268.2465
101294.8291
101309.6927
101298.9683
101292.0306
101307.6403
101322.3203
101322.173
101315.9681
101312.7858
101313.0054
101309.5241
101302.646
101301.8261
101296.4747
101295.1128
101288.677
101284.2506
101285.3992
101285.4225
101285.2028
101297.6228
101301.581
101296.7454
101296.6419
101305.2642
101312.7116
101315.4564
101313.7636
101311.0062
101308.8074
101306.0116
101302.3324
101305.2156
101296.0885
101295.2602
101296.5892
101286.7819
101280.2081
101289.9401
101303.4831
101301.7246
101289.8377
101291.8919
101303.2333
101305.1526
101302.6358
101307.0173
101313.2724
101312.3849
101306.4195
101303.4993
101302.4645
101307.2441
101295.2461
101291.0771
101300.093
101293.6511
101276.8669
101290.0548
101313.7737
101305.7672
101280.7851
101287.057
101307.6894
101306.9867
101296.2149
101300.7713
101312.962
101313.599
101304.9102
101301.8845
101302.1739
101306.9179
101296.2909
101287.2135
101302.0734
101301.9639
101281.7879
101289.6501
101317.0399
101310.6377
101281.6588
101285.6708
101308.6296
101308.7586
101295.4827
101298.0355
101308.9577
101310.6123
101304.0894
101302.2514
101301.9804
101303.9757
101297.0586
101292.4298
101304.6672
101302.3146
101290.9235
101295.1309
101307.0303
101304.0406
101291.5173
101293.3806
101304.5921
101305.1424
101297.4651
101297.0553
101302.6731
101304.7628
101302.5673
101301.4044
101300.6331
101308.0805
101304.858
101312.9831
101304.7567
101337.8073
101339.9681
101294.619
101287.2769
101331.1396
101338.0919
101306.5336
101286.6966
101301.8552
101319.7047
101321.0976
101314.2454
101314.7591
101311.3448
101303.8362
101299.4765
101308.9449
101304.348
101305.323
101298.7244
101324.2853
101324.4128
101297.8295
101286.9405
101317.6584
101329.1074
101314.5206
101296.849
101307.5321
101323.3663
101325.0114
101314.6706
101310.8935
101309.5236
101307.2072
101303.4597
101310.3205
101305.7432
101302.9148
101298.6583
101309.2696
101305.7483
101306.1215
101293.6105
101301.6964
101313.1622
101322.2796
101311.8311
101315.6104
101326.4782
101327.6003
101314.7587
101307.8349
101309.4663
101312.365
101308.9883
101310.7518
101306.9645
101309.4607
101304.8152
101300.0915
101293.3362
101313.7609
101303.5586
101289.1064
101293.2352
101320.6013
101327.5949
101322.347
101325.8918
101326.7578
101316.024
101307.8286
101311.5035
101317.5802
101313.3113
101307.2977
101303.4113
101317.5877
101310.4614
101290.1514
101284.3405
101324.8906
101313.6715
101277.9384
101274.5836
101313.7919
101336.8289
101326.1638
101320.9298
101324.8303
101321.1002
101312.866
101315.3835
101320.7861
101314.7267
101300.1499
101294.5505
101320.4869
101310.4956
101277.3477
101275.3743
101336.1435
101320.0647
101262.3567
101265.3906
101315.1656
101346.9295
101328.3001
101312.1628
101322.198
101329.4423
101321.4769
101319.5338
101321.4501
101313.6519
101292.9777
101282.4424
101314.6158
101305.1698
101265.8162
101269.8974
101345.4607
101323.8341
101245.5678
101253.3527
101328.4834
101361.0034
101331.0044
101303.009
101319.9508
101337.9928
101329.6782
101322.3893
101319.7345
101311.2128
101290.6046
101274.4313
101305.1381
101300.0989
101257.7256
101266.9924
101346.8784
101329.6819
101238.7557
101240.2992
101338.9254
101375.4171
101333.9802
101297.4987
101319.2946
101345.0835
101335.5944
101323.5307
101317.2232
101308.5625
101294.5651
101279.2726
101302.2448
101298.1201
101254.8495
101263.8748
101337.806
101327.4441
101244.7899
101242.7507
101328.8895
101378.213
101333.5638
101296.7458
101320.9716
101349.5299
101338.6976
101324.132
101315.2418
101306.4933
101301.0826
101292.5071
101305.87
101297.0145
101258.3846
101261.9367
101320.1021
101314.7937
101257.2315
101258.3829
101327.9439
101359.9872
101329.9675
101297.8869
101322.8707
101350.4441
101338.8583
101324.4113
101315.3419
101305.5537
101303.3592
101298.5781
101306.7986
101291.8312
101265.1567
101264.7201
101303.5396
101301.8499
101267.9062
101267.5092
101317.6372
101342.553
101325.0566
101303.4297
101327.2394
101347.6918
101335.8956
101323.4372
101315.3944
101305.921
101297.4662
101293.0688
101301.5183
101284.175
101273.4951
101274.3411
101297.0139
101289.9309
101269.3849
101272.876
101316.3885
101333.1997
101318.0968
101310.9734
101332.7605
101343.0206
101330.5621
101320.5495
101314.6636
101306.3777
101286.8602
101281.8274
101295.3521
101279.9837
101285.3658
101287.7894
101299.4599
101276.6888
101260.9485
101286.8553
101328.2156
101325.9115
101304.8713
101311.6648
101336.5245
101338.9816
101324.4853
101315.9464
101312.5159
101304.7824
101282.6221
101278.0752
101294.6343
101284.3391
101290.0134
101293.798
101303.2034
101263.4801
101250.7901
101305.6184
101344.2811
101314.9137
101284.8994
101307.0684
101339.3734
101335.4651
101318.8638
101311.2558
101309.0124
101301.4353
101289.9368
101287.8793
101302.0953
101296.62
101284.2553
101293.6704
101305.347
101257.5369
101250.3113
101320.4536
101350.3748
101306.3993
101277.5609
101304.9665
101334.9212
101328.9213
101314.4786
101308.5593
101304.7411
101298.3661
101305.3137
101303.6205
101305.7152
101305.0017
101285.7299
101295.1346
101294.2586
101267.3669
101277.7056
101328.3997
101332.5596
101296.6091
101287.8783
101309.2679
101323.7292
101318.575
101311.8688
101308.6173
101302.0937
101297.7604
101318.9057
101313.9211
101295.3891
101299.7267
101305.6554
101300.6306
101272.0168
101293.3245
101326.7657
101323.2351
101294.8121
101288.922
101311.552
101316.9987
101308.4986
101305.8615
101311.5541
101311.2158
101301.884
101299.5858
101321.6996
101313.7423
101273.1557
101279.4853
101325.4194
101302.9217
101252.1653
101309.6392
101365.4048
101308.539
101252.9566
101281.6586
101332.8834
101323.2173
101295.3001
101295.0096
101310.8107
101313.3286
101303.2569
101301.8206
101312.7889
101308.3146
101260.7776
101264.1704
101333.0034
101305.4418
101250.7062
101313.6701
101370.1833
101297.3867
101238.4474
101281.1435
101334.9714
101322.7843
101292.3271
101290.6968
101306.9484
101311.7811
101304.4844
101303.0535
101303.0872
101302.3963
101279.1775
101290.0945
101313.7494
101294.7749
101279.9392
101308.0558
101325.1056
101291.8355
101271.8454
101295.6429
101316.8277
101310.0599
101295.0914
101293.8532
101302.3006
101306.023
101303.0557
101301.7573
101313.8847
101306.5857
101341.6981
101332.5835
101327.2704
101374.6114
101340.4336
101281.6377
101313.0484
101352.9064
101333.2778
101304.4316
101308.0365
101321.9275
101312.3742
101296.4512
101296.6361
101304.1828
101306.2351
101303.2248
101310.9004
101300.5101
101322.287
101318.2343
101326.0478
101344.5531
101341.51
101294.7159
101299.0963
101338.7525
101336.1281
101303.5784
101305.6311
101322.2353
101323.7553
101310.5047
101303.2199
101304.5137
101306.231
101304.7031
101308.9276
101297.7884
101309.5958
101312.8986
101326.3496
101310.5428
101331.7288
101319.9921
101294.9565