/*--------------------------------*- C++ -*----------------------------------*\
| =========                 |                                                 |
| \\      /  F ield         | OpenFOAM: The Open Source CFD Toolbox           |
|  \\    /   O peration     | Version:  5.x                                   |
|   \\  /    A nd           | Web:      www.OpenFOAM.org                      |
|    \\/     M anipulation  |                                                 |
\*---------------------------------------------------------------------------*/
FoamFile
{
    version     2.0;
    format      ascii;
    class       volScalarField;
    location    "5.6";
    object      T;
}
// * * * * * * * * * * * * * * * * * * * * * * * * * * * * * * * * * * * * * //

dimensions      [0 0 0 1 0 0 0];

internalField   nonuniform List<scalar> 
30538
(
276.3696672
273.023719
272.9807048
272.9748689
272.9688573
272.9614724
272.9597588
272.9653886
272.978304
272.9935056
273.0096214
273.0250595
273.036548
273.0413722
273.0411152
273.0363576
273.0290192
273.0201788
273.0001007
272.1318684
276.366731
273.0205992
272.9763906
272.9687998
272.9624164
272.9561198
272.9561294
272.9627353
272.9754467
272.9891727
273.0020722
273.0140744
273.0252689
273.0346381
273.04116
273.041308
273.0333494
273.0201245
272.9953391
272.1328605
276.3360759
273.0215916
272.9752785
272.9648589
272.9581459
272.9541644
272.9559405
272.9629421
272.9753782
272.9879069
272.9985568
273.0070929
273.0176163
273.0315979
273.0452772
273.051924
273.0440343
273.0254292
272.9952514
272.1191504
276.3267161
273.0230802
272.9729245
272.9596371
272.9538067
272.9522215
272.954604
272.9608055
272.9727816
272.9856711
272.9968354
273.0049846
273.0153044
273.0301094
273.0460813
273.0567222
273.0505638
273.0298332
272.9969038
272.1348718
276.2437839
273.0228721
272.9712287
272.9564474
272.9515481
272.9509168
272.9525514
272.957185
272.9684799
272.9829373
272.9971222
273.0079028
273.0179664
273.0295024
273.0422124
273.053595
273.0506946
273.0326353
273.0004109
272.1152717
276.2022634
273.0208055
272.9712146
272.956963
272.9516033
272.9496505
272.9505496
272.9540683
272.9649633
272.9804962
272.9976781
273.0119369
273.0220334
273.0287161
273.0359989
273.0451792
273.0460877
273.0342926
273.006938
272.1497327
276.0549751
273.0157297
272.9722327
272.959992
272.9528397
272.9480601
272.9489799
272.9527873
272.9631502
272.9782923
272.9967836
273.0137523
273.0245286
273.0279693
273.0306931
273.0370054
273.0407188
273.0361353
273.0148049
272.1343348
275.9858964
273.0107634
272.9733652
272.9633426
272.9534744
272.9464341
272.948526
272.95319
272.9623888
272.9755224
272.9937081
273.0127249
273.0256118
273.0290717
273.0293574
273.0313602
273.0357434
273.0374477
273.0230863
272.1792782
275.7817053
273.0058979
272.9743736
272.9651718
272.9533568
272.9457681
272.9494253
272.9544257
272.9615395
272.9723452
272.9899093
273.0110232
273.0271011
273.032908
273.0315978
273.0279345
273.0304889
273.0367603
273.0285419
272.1745844
275.6902064
273.004909
272.974786
272.9649957
272.9532837
272.947151
272.9521283
272.9563299
272.9609699
272.9699109
272.9872374
273.0098698
273.0293357
273.0382769
273.0353461
273.0260714
273.0253048
273.0332368
273.0289269
272.2272966
275.4336732
273.0042018
272.9748683
272.9641323
272.9547372
272.9511978
272.9560544
272.9587251
272.9619398
272.9703892
272.9871442
273.0095726
273.0297523
273.0405309
273.0372383
273.0257509
273.0221907
273.0280344
273.0235669
272.2347712
275.3195282
273.0037701
272.9749561
272.9643733
272.9587634
272.9574113
272.9605048
272.9617283
272.965243
272.9741351
272.9893098
273.0079238
273.0253455
273.0362586
273.0353937
273.0271907
273.0228269
273.023139
273.0142963
272.2872686
275.0009836
273.0001355
272.9756069
272.9670451
272.9653587
272.9650697
272.9651133
272.9653045
272.9702913
272.9801083
272.9926739
273.0047596
273.0163932
273.0261889
273.0301376
273.0294756
273.0266584
273.0197628
273.0047773
272.3180103
274.8647618
272.9967476
272.9773819
272.9719682
272.9734569
272.9728054
272.9700768
272.9691661
272.9753897
272.9856247
272.9954297
273.0016838
273.0073826
273.0151859
273.0238624
273.0310504
273.0303968
273.0177424
272.9975582
272.3859771
274.4988156
272.9929885
272.9802783
272.9778869
272.980959
272.9794143
272.9752431
272.9734144
272.9792682
272.9887557
272.9968925
273.0007678
273.0025913
273.0080574
273.0182262
273.0295602
273.0299764
273.0157922
272.9951254
272.4586858
274.3585347
272.9924045
272.9842819
272.9836381
272.9861805
272.984405
272.9806686
272.9779182
272.981849
272.9895983
272.9973975
273.0021786
273.0037388
273.0063784
273.0145333
273.0245951
273.0248677
273.0127765
272.9958653
272.5478711
273.9610205
272.9929375
272.9887784
272.9879139
272.9889127
272.9878654
272.9858797
272.9827085
272.984056
272.9895407
272.9978403
273.005375
273.0089679
273.0089006
273.0117683
273.0165488
273.0164999
273.0090945
272.9984138
272.6602685
273.8229498
272.9955792
272.9930291
272.9914845
272.9903995
272.9907492
272.9906018
272.9881624
272.9873335
272.9909408
272.9979786
273.0060706
273.0111011
273.0102724
273.0095527
273.0092519
273.0087969
273.0056589
273.0001912
272.7545844
273.3891373
273.0181541
272.9982469
273.0327226
272.9998941
273.0382442
273.0048353
273.0292106
272.9986347
273.0132512
273.0001987
273.0124496
273.0073101
273.0117418
273.0012898
273.0045865
272.997125
273.0028563
272.9973853
272.8773151
270.747402
276.8240327
271.760244
277.6213861
272.7766844
277.787236
273.367245
277.2943509
273.4074664
276.3301821
272.9869527
275.17128
272.3510947
274.1241686
271.829314
273.4856453
271.6776474
273.3996332
271.9260867
273.7021111
277.0567594
273.0332651
272.9808385
272.9730055
272.9686135
272.964272
272.9644514
272.9676749
272.9774934
272.9905888
273.0054376
273.0189502
273.0300891
273.03687
273.0387986
273.0358212
273.0302474
273.0228063
272.9983019
271.8951267
277.0513491
273.0287925
272.9772293
272.9691991
272.9640608
272.9595112
272.9602396
272.963877
272.9737298
272.9864312
273.0001321
273.0120089
273.0223016
273.030393
273.0354959
273.0356408
273.0301351
273.0205224
272.9944561
271.8902253
277.0231141
273.0277867
272.9768724
272.9679662
272.9621215
272.9577545
272.9591444
272.963079
272.9728767
272.9855096
272.9987801
273.0092586
273.0183253
273.0276237
273.0363869
273.04038
273.0352609
273.0228183
272.9946545
271.874501
277.0043801
273.0269346
272.9753465
272.9651538
272.959224
272.955215
272.9569146
272.9607318
272.9706098
272.9837605
272.9977704
273.0084
273.0170249
273.0265086
273.0367247
273.0432078
273.0386095
273.0247075
272.9955342
271.8685031
276.9275019
273.0255418
272.9735795
272.9624995
272.9568331
272.9525815
272.9538603
272.9573851
272.9676557
272.9817027
272.997272
273.0093971
273.0180767
273.0265614
273.0359087
273.0430284
273.0394219
273.0259171
272.9970598
271.8426363
276.8731307
273.0241219
272.9725008
272.9612516
272.9555138
272.9500505
272.9505662
272.9544756
272.965538
272.9799093
272.9965981
273.0101859
273.0194965
273.0266225
273.0343131
273.0406748
273.0383642
273.0269844
273.0000385
271.8423996
276.7303636
273.0212521
272.9722465
272.9613222
272.9549881
272.9477235
272.9478479
272.9530518
272.9649006
272.9786552
272.9952301
273.0096649
273.020202
273.0265424
273.0326483
273.0381831
273.0370498
273.0283889
273.0038431
271.8261348
276.6348788
273.0181716
272.9726859
272.962106
272.954591
272.9460524
272.9467207
272.9533226
272.9651235
272.9774814
272.992949
273.0079583
273.0202822
273.0269448
273.0318945
273.035895
273.0354543
273.0294171
273.0080798
271.8424877
276.4194309
273.0137948
272.9732768
272.9630891
272.9544294
272.9459373
272.9479999
272.9548173
272.9651098
272.9757196
272.9904913
273.0062548
273.0204584
273.028268
273.0321233
273.0336205
273.0325293
273.028805
273.0109528
271.852232
276.2839342
273.0106393
272.9741028
272.9642566
272.9550345
272.9478806
272.9516086
272.9572021
272.964745
272.973778
272.9885305
273.005184
273.0206819
273.0300068
273.0329668
273.0315247
273.0288784
273.0263244
273.011268
271.8935822
275.9974285
273.00744
272.975318
272.9657666
272.9571956
272.9520316
272.9566453
272.9600669
272.9647877
272.9729632
272.9878352
273.0046845
273.020112
273.0297041
273.0327314
273.0294662
273.0255163
273.0229426
273.0092449
271.9385973
275.8294922
273.0061857
272.9767579
272.9676588
272.9612376
272.9577486
272.9619787
272.9632623
272.9662455
272.9739725
272.9884461
273.0041568
273.0178182
273.0265863
273.0298903
273.0274485
273.0236039
273.0200776
273.0064332
272.003458
275.4701547
273.0037331
272.9780631
272.9700293
272.9668105
272.9644773
272.9669766
272.9668042
272.9692124
272.9764361
272.9897979
273.0033787
273.0141662
273.0209826
273.0245821
273.024691
273.0225994
273.0183493
273.0046346
272.0897116
275.2738764
273.0016041
272.9793212
272.973004
272.9730861
272.9714799
272.9718172
272.9707596
272.9730409
272.979253
272.9909711
273.0026202
273.0108887
273.0152674
273.0184173
273.0210713
273.0214523
273.017355
273.0041555
272.1768933
274.8540183
272.9976393
272.980999
272.9765967
272.9790517
272.9780933
272.9768089
272.9748872
272.976803
272.981756
272.9917171
273.0020942
273.0089247
273.0114833
273.0133495
273.0168902
273.0188281
273.0157913
273.004495
272.302741
274.6461598
272.9953263
272.9837627
272.9810361
272.983942
272.9835895
272.9817624
272.9789098
272.9800548
272.9841846
272.9925239
273.0015555
273.0079482
273.0096644
273.0105269
273.0130765
273.0148199
273.0128091
273.0041959
272.404021
274.183902
272.9937781
272.9878289
272.9858677
272.9876408
272.9877757
272.9863521
272.9826676
272.9830661
272.9872116
272.9941302
273.00112
273.006803
273.0089754
273.0096162
273.010035
273.010237
273.0087359
273.0028598
272.5606979
273.9812441
272.9950349
272.9926529
272.9914182
272.9905948
272.9912582
272.9904319
272.987158
272.98678
272.9911361
272.9964459
273.0005964
273.0043677
273.007426
273.008824
273.0076271
273.0062863
273.0047596
273.0007134
272.664032
273.4795129
273.0191416
272.9992278
273.0391753
273.0037214
273.045302
273.0075769
273.0326267
272.9999869
273.0171224
273.000922
273.0085706
272.9998725
273.0069821
272.9985569
273.0039337
272.9943818
273.0012551
272.9963309
272.8333814
270.7653733
277.0942862
272.0147594
278.0949628
273.2564535
278.3433575
273.9367662
277.7920118
273.8630825
276.6699416
273.2049849
275.3188981
272.3013679
274.1296865
271.5863725
273.450788
271.3520525
273.4203166
271.6445635
273.8180763
277.7213329
273.0447344
272.9853151
272.9760039
272.9729047
272.9701571
272.9746931
272.9755328
272.9799942
272.9888134
273.0024231
273.0144353
273.023404
273.0309625
273.0357533
273.0351775
273.0304051
273.0235427
272.9937651
271.0967761
277.7190705
273.039239
272.9822573
272.9742804
272.9702801
272.9663016
272.969889
272.9706745
272.975988
272.9852941
272.9992956
273.0114526
273.0191478
273.0245712
273.0286445
273.0294731
273.026162
273.0199984
272.9906473
271.0946612
277.6793549
273.0364624
272.9823977
272.9757308
272.9706969
272.9651693
272.9677882
272.9687714
272.9753661
272.9854431
273.0001903
273.0125534
273.0191868
273.0223744
273.0257869
273.0281011
273.0263859
273.0207163
272.9919821
271.0472955
277.6747554
273.033724
272.9813594
272.9752292
272.9695523
272.9626051
272.9643875
272.9661237
272.974354
272.9849083
273.0001224
273.0127143
273.0195404
273.0221985
273.025772
273.028877
273.0276182
273.0214964
272.9932968
271.0505253
277.5768079
273.0304896
272.9788465
272.9723965
272.9674477
272.9593743
272.9598485
272.9628865
272.973054
272.9839075
272.9986304
273.011359
273.019734
273.0239388
273.0283867
273.0315978
273.0293997
273.0219899
272.993944
270.9692803
277.5430046
273.0298429
272.9762701
272.9684352
272.96511
272.95632
272.9547646
272.9596444
272.9724771
272.9834017
272.9963831
273.0082914
273.0191769
273.0261903
273.0321267
273.0351123
273.0313907
273.0223392
272.9945432
270.9870462
277.366884
273.0293917
272.9749778
272.9651913
272.9630316
272.9538857
272.9504469
272.9573974
272.972697
272.9837094
272.9943894
273.0051122
273.0179806
273.0276693
273.0346122
273.0375238
273.0327013
273.0224902
272.9951854
270.9159297
277.2940321
273.0299125
272.9751181
272.9635113
272.9616768
272.9523735
272.9487691
272.9570002
272.9738688
272.9845937
272.9932129
273.0031143
273.0169329
273.027984
273.0350791
273.037662
273.0327287
273.0222791
272.9962499
270.9686931
277.0201478
273.0254579
272.9757503
272.9638449
272.961173
272.9523823
272.9504084
272.9584663
272.9739709
272.9838811
272.992109
273.0018836
273.0157283
273.0267217
273.0331219
273.0359899
273.0314789
273.0217213
272.997213
270.9535867
276.8990607
273.019884
272.9766014
272.9661585
272.9619465
272.9539523
272.9549452
272.9612752
272.9732609
272.981376
272.9909518
273.0009181
273.0139064
273.0239859
273.0302629
273.0337325
273.030067
273.0208975
272.9976222
271.0612094
276.5259951
273.012497
272.97793
272.9698866
272.9644813
272.9570652
272.960565
272.9646445
272.9720803
272.9786056
272.9895846
273.0008557
273.0123889
273.0206346
273.0267143
273.0307768
273.0282074
273.0200464
272.9981856
271.1265885
276.3741297
273.0104084
272.9797591
272.9736822
272.96843
272.9613358
272.9654318
272.9680251
272.9721287
272.9766558
272.9886535
273.0019599
273.0125308
273.0178386
273.0225645
273.0264021
273.025561
273.0195436
273.0001069
271.2821765
275.9077135
273.0085396
272.9815892
272.9761835
272.9729998
272.9664113
272.9692818
272.9714972
272.9739384
272.9763619
272.9879001
273.0034396
273.0138011
273.016113
273.0177609
273.0203951
273.0215531
273.0191602
273.0038427
271.4267503
275.7284069
273.0091712
272.9830232
272.9772774
272.977103
272.9720513
272.9732226
272.9751088
272.9771015
272.9774931
272.9875486
273.004006
273.0148237
273.0153548
273.0133169
273.0135471
273.0165651
273.0184706
273.0080461
271.6164832
275.1789497
273.0047237
272.9843934
272.9781219
272.9804755
272.977953
272.9781587
272.9787455
272.9800217
272.9795674
272.9879464
273.0028988
273.0138414
273.0144682
273.0101971
273.0080352
273.0114511
273.0163298
273.0107302
271.8197561
274.9811944
273.000576
272.9865165
272.9812458
272.983528
272.9833361
272.9838678
272.9823698
272.9820617
272.982477
272.9897257
273.0005698
273.009763
273.0121454
273.0088842
273.0055334
273.0076056
273.012597
273.00999
272.0143823
274.3730607
272.9950379
272.9899384
272.9871946
272.9868282
272.9875386
272.9894625
272.9856624
272.9836331
272.9863425
272.9930998
272.9982572
273.0034735
273.0082062
273.0090786
273.0064152
273.0054891
273.0078666
273.0063574
272.2515326
274.1850846
272.9941374
272.994427
272.9948548
272.9908154
272.9913809
272.9938441
272.9894462
272.9861872
272.9910393
272.9975187
272.9978463
272.9982703
273.0040951
273.0089023
273.0081397
273.0045619
273.0035093
273.0019231
272.4410216
273.5330227
273.0258815
273.0003105
273.0575052
273.0052481
273.0582662
273.0103332
273.0406548
272.9984929
273.0181235
273.0025692
273.005684
272.9939851
272.9993309
272.9963536
272.9995786
272.9931635
272.9964865
272.9962783
272.6963194
270.2946915
277.9179195
271.7537356
279.0958419
273.2117356
279.2603806
273.99894
278.3808636
273.8763534
276.8123112
273.0867334
275.0088176
272.0346872
273.4642873
271.2685868
272.6263169
271.1501444
272.6843717
271.7199931
273.3220989
279.9234913
273.0817657
272.9921592
272.9839401
272.9844554
272.9786933
272.9879932
272.9904781
272.990919
272.9896307
272.9986417
273.0101173
273.017776
273.022858
273.0291327
273.0335056
273.0301728
273.0213872
272.9809148
269.976109
279.9307103
273.0770366
272.9891703
272.9825569
272.9818175
272.97542
272.9815466
272.9830728
272.9865464
272.9880655
272.9978911
273.009467
273.0167346
273.0187933
273.0212681
273.0237842
273.0223146
273.0170233
272.9792972
269.9432961
279.9250013
273.0751889
272.9899305
272.9846323
272.9823243
272.9750104
272.977816
272.978505
272.9854356
272.9906169
273.0015334
273.0129347
273.02
273.0195823
273.0179818
273.0177246
273.0183907
273.0174393
272.9837698
269.8784601
279.9299518
273.0721288
272.9898674
272.9849572
272.9817463
272.9736233
272.9731376
272.9744549
272.9845759
272.9923565
273.0030924
273.0130433
273.0210141
273.0213594
273.0186392
273.01646
273.0176123
273.0188505
272.9881178
269.798573
279.878262
273.0671091
272.9871148
272.9813484
272.9800809
272.9721435
272.9681854
272.9704672
272.9843186
272.9933109
273.0020905
273.0096974
273.0197625
273.0241898
273.0236733
273.0205567
273.0201926
273.0204004
272.9906204
269.6949227
279.8288792
273.0635815
272.9827631
272.9750048
272.9778439
272.9711219
272.9632466
272.9656408
272.9838305
272.994141
272.9993804
273.004506
273.0167808
273.0271833
273.0303285
273.0272423
273.0241455
273.0211194
272.991233
269.6072546
279.6714829
273.0625537
272.980372
272.9694261
272.9759044
272.9707518
272.9593861
272.9607836
272.9831676
272.9957119
272.9974836
272.9996897
273.0140655
273.0294834
273.035504
273.0323147
273.0267778
273.0203235
272.9903949
269.541182
279.5371855
273.0634963
272.9806828
272.9669085
272.9742289
272.9703417
272.9582537
272.95865
272.9824531
272.9994056
272.9984705
272.9980317
273.012238
273.0298316
273.0369496
273.033682
273.0270741
273.0188452
272.9896238
269.5160343
279.2277641
273.0587457
272.9816622
272.9673478
272.973017
272.9695682
272.9597499
272.9594914
272.9814853
272.9984673
272.9991983
272.998187
273.0112454
273.0273916
273.0341899
273.0321745
273.0265467
273.0181043
272.9894173
269.5632192
278.9745775
273.050418
272.9825543
272.9702223
272.9729946
272.9686589
272.9629543
272.9628867
272.9803315
272.992486
272.997605
272.9977464
273.009131
273.0221756
273.0286429
273.0296862
273.026667
273.0188024
272.9910065
269.6521694
278.4953284
273.0390912
272.9825855
272.974322
272.9752883
272.9687938
272.9656874
272.9671403
272.9802465
272.9879013
272.9947507
272.9978522
273.007803
273.0167114
273.0226032
273.0266021
273.0267975
273.020117
272.993374
269.8461856
278.1576352
273.0323127
272.9822353
272.978174
272.9797449
272.9705854
272.966964
272.9704274
272.9817041
272.9858711
272.99192
272.999573
273.0092577
273.0142647
273.0176523
273.022336
273.0252499
273.0210609
272.9969751
270.0468689
277.5246704
273.0274
272.9828009
272.9801847
272.9845347
272.9738144
272.9672351
272.9722362
272.9846197
272.9867483
272.9900333
273.0003164
273.0121371
273.014992
273.0146734
273.0173162
273.0213008
273.0206177
273.0009836
270.3656674
277.1271851
273.025923
272.9848946
272.9803421
272.9869606
272.9780099
272.9702724
272.9749666
272.9884443
272.9888603
272.9884558
272.9989601
273.0139224
273.0171145
273.0131473
273.0117793
273.0156156
273.018733
273.0045794
270.6368904
276.3733359
273.0187578
272.9880405
272.9808012
272.9867284
272.9822482
272.9768415
272.9800221
272.9910795
272.9900054
272.9880653
272.996737
273.0120479
273.0167554
273.0122052
273.0080918
273.010053
273.0151359
273.0063202
271.0395857
275.9555209
273.0109882
272.9912763
272.9846195
272.9854669
272.9843544
272.9854963
272.9870161
272.9910787
272.9891409
272.9900311
272.9962036
273.0063988
273.0117122
273.0103269
273.0072992
273.0070591
273.0107401
273.0056728
271.323973
275.1173881
273.000687
272.9941173
272.9919541
272.9859321
272.9845565
272.9940904
272.993743
272.9887463
272.9871232
272.9939456
272.9984267
273.0002437
273.0035008
273.0080148
273.009191
273.0068823
273.0062336
273.0033998
271.7742028
274.7301585
272.9963827
272.9970297
273.0002787
272.9889783
272.9859135
272.9989789
272.9992029
272.9875487
272.9858961
272.9985196
273.0036341
272.9975772
272.9967207
273.0049806
273.0107317
273.0073363
273.0028707
273.0006624
272.0476872
273.840323
273.0381434
273.0044501
273.0884268
273.015941
273.0833786
273.0298196
273.071979
273.0071733
273.0204624
273.0051309
273.0173744
272.9943435
272.9899087
272.9868033
272.9961745
272.991962
272.9954048
272.995831
272.5171039
270.3301032
278.872781
272.5656549
280.7346091
274.8186709
281.144653
275.9719145
280.0469104
275.4418841
277.8583193
273.7809361
275.3965923
271.8090884
273.2946327
270.2951702
272.2766596
269.8900952
272.5956075
270.6940898
273.6828763
281.690508
273.118959
273.0008426
272.9950295
273.0081173
272.9982639
272.997539
273.0050831
273.0134434
273.0005979
272.998631
273.006064
273.0114892
273.0132
273.0206588
273.0291745
273.0294785
273.0193334
272.9649394
267.8692605
281.7243344
273.1158043
272.9963734
272.9911724
273.0007921
272.9931906
272.99055
272.9947249
273.0066391
273.0007074
272.999578
273.006586
273.0139343
273.0149669
273.0158716
273.018344
273.0186955
273.0134992
272.9641736
267.8267815
281.7323557
273.1157294
272.9974285
272.9920394
272.996573
272.9909557
272.9880842
272.9877555
273.0017115
273.0034509
273.0041498
273.0106379
273.0204677
273.0221317
273.0156826
273.0109752
273.0116002
273.0131298
272.9715967
267.6621413
281.8104586
273.1151113
272.9996636
272.9935904
272.9933867
272.988758
272.9857779
272.9821886
272.9960791
273.0049295
273.0061431
273.0079584
273.0217892
273.02696
273.018455
273.0087971
273.0088012
273.0149381
272.9798425
267.5604948
281.7528998
273.1080515
272.9995974
272.9917945
272.9899769
272.9878096
272.9842786
272.9782962
272.990719
273.0065329
273.0082115
273.0028812
273.0169963
273.0276814
273.0232824
273.0129992
273.0115594
273.0177843
272.9861073
267.3035406
281.7674075
273.1011624
272.9961257
272.9861739
272.9863166
272.9883363
272.9831259
272.9748399
272.9862597
273.0078611
273.0126296
273.0027451
273.0093755
273.0245185
273.0279404
273.0207591
273.0173974
273.0198207
272.9893692
267.2224467
281.5574185
273.0931963
272.9924718
272.9806137
272.9838991
272.9902635
272.9826371
272.9700964
272.9822392
273.0079408
272.9691371
273.0047334
273.00497
273.0218241
273.0312621
273.0271816
273.0216037
273.0198048
272.9905382
267.0241883
281.4690464
273.0915351
272.9915071
272.97846
272.9821241
272.9915858
272.982839
272.9659346
272.9808022
273.005195
272.919185
273.0087971
273.0055817
273.0212323
273.0333105
273.0303366
273.0228623
273.0182752
272.9904688
267.0675927
281.0450681
273.0848032
272.992254
272.9790835
272.980263
272.9896366
272.9818953
272.9643792
272.9773957
273.0038986
273.0181787
273.0105035
273.0069534
273.0201964
273.0322224
273.0298117
273.0224098
273.0175372
272.9915965
267.0767735
280.8109608
273.0822598
272.9929747
272.9809474
272.9795208
272.985166
272.9792973
272.9658901
272.9773938
273.0033087
273.0170897
273.0074663
273.0045572
273.0161998
273.0274562
273.0273938
273.0228897
273.0186415
272.9941628
267.3114665
280.1346978
273.0696915
272.9911224
272.9818739
272.982088
272.981924
272.975469
272.9683498
272.9798442
272.9993688
273.0108968
273.0027958
273.0016771
273.0130896
273.0225002
273.024543
273.0234893
273.0204634
272.997204
267.5840751
279.7761677
273.0611647
272.9873873
272.9812357
272.9879011
272.9831495
272.9723195
272.9681553
272.9834335
272.9968956
273.0041505
272.9968509
273.0024308
273.0135993
273.0204798
273.022067
273.0228098
273.0208729
272.999162
267.989849
278.8500296
273.0455766
272.985483
272.9805666
272.9957504
272.9883125
272.9695413
272.9668704
272.9879128
273.0030287
272.9999352
272.9918361
273.0043907
273.0168747
273.0202411
273.019549
273.0198726
273.0190159
272.9997223
268.4921046
278.423882
273.0406159
272.987478
272.9816377
272.9977925
272.9924979
272.9728162
272.9691923
272.9942204
273.0083041
272.9992252
272.9904975
273.0047697
273.0180656
273.0192664
273.0164186
273.0155374
273.015514
272.998909
268.9961656
277.3252006
273.0288641
272.9930837
272.9855624
272.9927244
272.992514
272.981244
272.9763616
272.9970072
273.0081465
272.998861
272.9923301
273.0036781
273.0151052
273.0163885
273.0135188
273.0117935
273.0116189
272.9976238
269.6565994
276.8930841
273.0239493
272.9971304
272.9916459
272.9876735
272.988617
272.9889691
272.989124
272.9988575
273.0016096
272.9971461
272.9961928
273.0022418
273.0079938
273.0112853
273.0117145
273.0103778
273.0084359
272.9966451
270.1784525
275.6930901
273.0114774
272.996995
272.9975054
272.9893497
272.9842362
272.9921701
273.0030409
273.0018355
272.9924278
272.9935223
273.0017191
273.0026679
273.0006367
273.004901
273.0112246
273.011276
273.0065073
272.9970357
270.9163127
275.305016
273.0065408
272.9934565
273.0013026
272.9946529
272.9829968
272.9923273
273.0116936
273.0049503
272.9855632
272.9899675
273.0056071
273.0046416
272.9961538
273.0003204
273.0108782
273.0119907
273.0050929
272.9980191
271.4123924
274.0357415
273.0749711
272.9966395
273.1360369
273.0260484
273.1304563
273.0260266
273.1089557
273.0270308
273.0223076
272.9919533
273.0115624
272.9977623
272.9809504
272.9786146
272.9853208
272.9919625
272.992335
272.9950224
272.1686629
269.4104834
280.8046226
272.160735
283.1908434
275.0235766
283.4665786
276.4314491
281.5347366
275.7683578
278.2161155
273.6338529
274.6698857
271.2160627
271.672607
269.3971068
270.1519667
269.2302217
270.7391754
270.7720449
272.4790777
285.9313886
273.2339345
273.0165591
273.0077992
273.034224
273.0367544
273.00194
272.9966832
273.0312805
273.0370697
273.0116505
272.9945516
273.0039664
273.0168209
273.0194926
273.0165454
273.0177523
273.0148518
272.9552422
264.877783
286.009362
273.2293686
273.0066716
272.9992141
273.0196538
273.0206779
273.0005165
272.9927107
273.0170997
273.0262197
273.0140013
272.9983426
273.0044359
273.0157189
273.0183797
273.0125807
273.0103628
273.0088639
272.95314
264.7260559
286.1436096
273.2325463
273.0048953
272.9993163
273.008103
273.0064157
273.0073337
272.9984831
273.0051977
273.0140394
273.0200231
273.0098541
273.0106932
273.0182266
273.0202715
273.0122107
273.0073491
273.0082919
272.9610495
264.4221437
286.320879
273.2366107
273.0101347
273.004357
273.0012448
272.9970556
273.013641
273.0067892
272.9958759
272.9988676
273.0187369
273.0219143
273.0157695
273.0176898
273.0193113
273.0125955
273.0065291
273.0092252
272.9713958
264.0383375
286.4507687
273.234857
273.0166841
273.0090361
272.993897
272.9904332
273.0227308
273.0151937
272.9876003
272.9846407
273.0110956
273.0289423
273.0184493
273.0136264
273.0174116
273.0158259
273.0095291
273.0115513
272.9816635
263.5906723
286.5215337
273.2276427
273.0191084
273.009372
272.9844014
272.9838628
273.0319123
273.0205083
272.9758029
272.9759899
272.8656297
273.0365555
273.0198891
273.0065936
273.0150012
273.0216135
273.0153724
273.0141225
272.9914992
263.2021539
286.417768
273.2148053
273.0146842
273.0055288
272.9758824
272.9799514
273.0393902
273.0236066
272.9622646
272.8850844
269.3506029
273.0146295
273.0215411
272.9992025
273.0129092
273.0277098
273.0211166
273.0158469
272.9983314
262.9090403
286.2590722
273.2025137
273.0074724
273.0018986
272.9700513
272.9780093
273.0406731
273.0280435
272.9562933
272.8112409
264.2324934
272.878743
273.0227374
272.994578
273.0121332
273.0329731
273.0254426
273.0165268
273.0039563
262.776982
285.7858274
273.1917264
273.0051665
273.0006131
272.9681246
272.9757985
273.0336624
273.0261907
272.9617188
272.9569999
272.4877269
273.0572104
273.0226917
272.9938021
273.0134188
273.0365104
273.0279177
273.0170438
273.0067922
262.8795189
285.3209892
273.188369
273.0079416
272.9999297
272.9709553
272.9742799
273.0198372
273.016253
272.9709985
272.9709638
273.01722
273.0453046
273.0197218
272.9946813
273.0151266
273.037586
273.0283916
273.0175051
273.0103052
263.1506329
284.3941971
273.167899
273.0084148
272.9959181
272.9760686
272.9762151
273.0066757
273.0057866
272.9789145
272.9776187
273.0143625
273.0313948
273.0158637
272.9991413
273.0189673
273.0360493
273.0266382
273.0170515
273.0096209
263.7235367
283.6472797
273.1432823
273.0039949
272.9897319
272.9821185
272.9832131
273.0011866
272.9960661
272.9796017
272.9812364
273.0129994
273.0238642
273.0104777
273.0051718
273.0237066
273.0330989
273.02314
273.0150813
273.0086122
264.3806653
282.2849064
273.1036709
272.9987018
272.9860612
272.9906445
272.9929124
273.0024897
272.9852452
272.9726996
272.9916929
273.0219043
273.0179804
273.0002727
273.0059283
273.0270118
273.0306122
273.0190571
273.0117312
273.0036603
265.3543869
281.3876734
273.0809591
272.9977019
272.9889901
272.9935272
272.9968747
273.0047172
272.974285
272.9643846
273.0058562
273.0341201
273.0093723
272.9848674
273.002527
273.0294955
273.0283874
273.0151771
273.0083032
273.0001601
266.2368151
279.7934301
273.0578729
273.0029357
272.9979912
272.9884134
272.9962067
273.0058313
272.9691272
272.9634395
273.0170058
273.0386225
273.0027907
272.9793864
273.0011281
273.0263181
273.0235671
273.0120865
273.0064824
272.9949768
267.4413743
278.9280002
273.0541038
273.0052889
273.0040224
272.9890281
272.9969255
272.9967943
272.9763482
272.984226
273.022882
273.0247966
272.9954651
272.9878723
273.0048749
273.0178462
273.0156249
273.0102219
273.0068326
272.9941319
268.3186626
277.2097134
273.0386893
272.9968189
272.9995148
273.0041097
273.000758
272.9792229
272.9960027
273.022009
273.0187088
272.995734
272.9900376
273.0070311
273.0115982
273.0063834
273.0058516
273.0100775
273.0091361
272.994737
269.6082482
276.4429606
273.0293369
272.9792759
272.9865695
273.0197683
273.0057979
272.9644339
273.0101361
273.052023
273.0076694
272.9635313
272.9850885
273.024338
273.0171171
272.9964749
272.9974106
273.0095651
273.0109236
272.9984354
270.3860259
274.6371592
273.1297402
272.9847145
273.2059217
273.0897947
273.267983
273.0583538
273.184784
273.111288
273.0660401
272.9626924
272.9926153
273.0076581
272.9887496
272.9651065
272.9624565
272.9922689
272.9945927
273.0002581
271.6842708
269.3594578
282.8863823
273.5969486
286.6494198
278.266884
287.5226402
280.5385661
284.8117722
278.9817816
280.036286
274.8425884
274.960856
270.5607872
270.8362394
267.0748869
268.7894073
266.2407354
270.1387293
268.4774122
273.0435093
289.8233445
273.3657836
273.0423647
273.0307801
273.0272895
273.0644438
273.038452
272.9933009
273.0179869
273.0492236
273.0319689
273.0068787
273.0069512
273.017785
273.0128289
273.0027668
273.002237
273.0071594
272.9645848
260.6875362
290.0389043
273.3619515
273.0234407
273.0157327
273.0221557
273.037269
273.0354114
272.9996744
273.0033503
273.0339021
273.0301688
273.002046
273.0014243
273.0144131
273.017754
273.009558
273.0031726
273.00296
272.9607654
260.4276176
290.2943416
273.3668125
273.0138108
273.0117213
273.0225918
273.011438
273.0284747
273.0199804
273.000289
273.0164013
273.0295436
273.0040679
272.9999508
273.0106203
273.0228512