/*--------------------------------*- C++ -*----------------------------------*\
| =========                 |                                                 |
| \\      /  F ield         | OpenFOAM: The Open Source CFD Toolbox           |
|  \\    /   O peration     | Version:  5.x                                   |
|   \\  /    A nd           | Web:      www.OpenFOAM.org                      |
|    \\/     M anipulation  |                                                 |
\*---------------------------------------------------------------------------*/
FoamFile
{
    version     2.0;
    format      ascii;
    class       volVectorField;
    location    "5.6";
    object      U;
}
// * * * * * * * * * * * * * * * * * * * * * * * * * * * * * * * * * * * * * //

dimensions      [0 1 -1 0 0 0 0];

internalField   nonuniform List<vector> 
30538
(
(-0.09809427214 0.002323863744 0.0004846387818)
(-0.07869930123 0.001618023621 0.009791366726)
(-0.07978034755 0.004781831314 0.01008423558)
(-0.04548561138 0.004825808575 0.01735563899)
(-0.04144103856 0.006593358158 0.01555194973)
(-0.008963784857 0.005581737121 0.0186264938)
(-0.00660958131 0.007259471911 0.01647479248)
(0.03045053593 0.004404235367 0.01604794827)
(0.02560075812 0.003800151319 0.01095835431)
(0.04410798263 0.002159865055 0.01156301642)
(0.03192680965 0.005291872585 0.009731628922)
(0.05463324291 0.006070338976 0.01302932445)
(0.05452465254 0.006874453589 0.006114643694)
(0.06915409743 0.002465880618 0.003472783312)
(0.04550241456 -0.002072065734 -0.004790214815)
(0.02317678323 -0.007448183232 -0.00248472834)
(-0.01216644401 -0.004358626712 -0.003895378632)
(-0.01065403117 0.003506086509 0.001923122513)
(-0.006056934458 0.01126845482 -0.00220471863)
(0.008126638138 0.006736119395 0.001649719377)
(-0.09522610285 0.005543179297 -0.0002145627907)
(-0.07693072882 0.004198432876 0.009096629877)
(-0.07757422048 0.01094029215 0.009018454943)
(-0.04416629055 0.01120069475 0.01660389526)
(-0.04093582153 0.01433438883 0.01489765223)
(-0.008489285765 0.01411705772 0.01812829399)
(-0.007453732626 0.01795721809 0.01543650987)
(0.02804511541 0.01310668307 0.01591412556)
(0.02400153768 0.009559722221 0.01120535165)
(0.04520826137 0.006927759279 0.01224174834)
(0.03464909347 0.01208416307 0.008906409651)
(0.05574034143 0.01665686269 0.01194300629)
(0.05194358083 0.01771969727 0.004379861612)
(0.06282103245 0.009711690999 0.002616924578)
(0.03855043735 -0.003324933677 -0.004909346605)
(0.02149127257 -0.01648311667 -0.001101923068)
(-0.004324138955 -0.01087329726 -0.003010690849)
(0.0004039805909 0.008372017772 0.001006282529)
(-0.003768591135 0.02659796097 -0.00524202266)
(-0.004688548825 0.01583095762 1.547648755e-05)
(-0.09094176355 0.008644435341 -0.001165163754)
(-0.07488244555 0.004163591631 0.008242660054)
(-0.07487407711 0.01239673152 0.007933947396)
(-0.0430763485 0.01021932324 0.01593405737)
(-0.0394184415 0.01600578054 0.01462515926)
(-0.006407059487 0.01599361463 0.01736269074)
(-0.007326926153 0.02478120107 0.01437663977)
(0.02456880676 0.01820684777 0.01558624578)
(0.02121136089 0.01591235244 0.01250584581)
(0.04598134756 0.009346204662 0.01327514764)
(0.03873600094 0.01613179518 0.008465335282)
(0.05863276629 0.01994149711 0.009758836146)
(0.04958331101 0.02422195544 0.001963255994)
(0.05429281604 0.01486726933 0.0007093465211)
(0.02706597387 0.00108239759 -0.004497273591)
(0.01776809465 -0.01734079019 0.00114714219)
(0.005517270912 -0.01068445533 -0.0009337765362)
(0.01583615374 0.007993777893 -1.375003453e-05)
(-0.0006841086393 0.02652117263 -0.00899223946)
(-0.02220628939 0.01403666077 -0.002144082719)
(-0.08583378044 0.008651548735 -0.002254437945)
(-0.07439510585 0.002694713225 0.007575704236)
(-0.07313985173 0.009950477127 0.007932797362)
(-0.04166750626 0.007118248326 0.01640184731)
(-0.03679096049 0.01661903964 0.0149206618)
(-0.002322655522 0.01749552111 0.01729899396)
(-0.005916227195 0.02802249593 0.01311271964)
(0.02183271184 0.02333106809 0.0160613141)
(0.01769333696 0.02373744297 0.01331418011)
(0.04547674687 0.01725366973 0.015282074)
(0.04207849647 0.02236633194 0.007150880089)
(0.06144300551 0.02382606584 0.007853502924)
(0.04835188358 0.02694227922 -0.001577717148)
(0.04648283785 0.01680278178 -0.0009671632)
(0.01577915287 0.005396808886 -0.00474496194)
(0.01319219088 -0.0110974513 0.003791978101)
(0.01356806907 -0.004178633001 0.0007047810308)
(0.02675501991 0.00635610488 -0.000496971598)
(0.0007018399309 0.01425558591 -0.01133372846)
(-0.03385721396 0.005175204096 -0.003029030737)
(-0.0825652576 0.007433437938 -0.002468834227)
(-0.07410395287 -0.0008900380833 0.007753051134)
(-0.07155781402 0.01124217258 0.00892525449)
(-0.03845235454 0.007363754057 0.0171908773)
(-0.03199012103 0.02388881055 0.01548786161)
(0.001609487193 0.02090951429 0.01712386446)
(-0.003218399726 0.03244583413 0.01307493771)
(0.02160263872 0.02729281627 0.01597169564)
(0.01686911968 0.03472122468 0.01458945401)
(0.04510540386 0.02785202587 0.01540608311)
(0.04330925571 0.03260829927 0.005991079038)
(0.06185580134 0.0274419002 0.005067241783)
(0.04459378973 0.02771211357 -0.003666176326)
(0.039078813 0.011792127 -0.00181826301)
(0.007299125365 0.003986384347 -0.003410389313)
(0.01106202439 -0.005023128484 0.0056952808)
(0.01780376578 0.005811907196 0.001689365374)
(0.02888770264 0.004475215127 -0.001059893157)
(-0.001293749905 0.001371579407 -0.01073218257)
(-0.03647009891 -0.004989290903 -0.002733047359)
(-0.08090877758 0.004753507302 -0.001814246465)
(-0.07179711652 -0.003074636065 0.009366471495)
(-0.06718796299 0.01585868926 0.009852112102)
(-0.03283740393 0.01392300689 0.01759844364)
(-0.02718412783 0.03355129455 0.01458131915)
(0.003692105956 0.0266068474 0.01738090448)
(-0.001418568005 0.03683667862 0.01237822261)
(0.02351244484 0.03197039059 0.01646938103)
(0.01803715008 0.04526825487 0.01278609267)
(0.04408865401 0.03952811613 0.01467535502)
(0.04173191196 0.04358013538 0.002162423338)
(0.05796727996 0.03206930053 0.002666258709)
(0.03729731513 0.02661595214 -0.006498591138)
(0.02970959651 0.004902339864 -0.0008013406386)
(0.003888685388 -0.001092150472 -0.002041096138)
(0.01450797849 -0.0010775489 0.006414140507)
(0.02029742519 0.01367579163 -0.0004256923303)
(0.02358494736 0.004680462119 -0.001610699936)
(-0.005781347337 -0.005173287215 -0.009062700974)
(-0.03185502527 -0.009654345352 -0.0007381437004)
(-0.08110808283 0.004207887009 0.0001325621341)
(-0.06636408066 -0.003302131947 0.01182269042)
(-0.05944143183 0.02560013773 0.01084546604)
(-0.02609809452 0.02333286262 0.01679407241)
(-0.02302998261 0.04421695015 0.01376810153)
(0.003930102689 0.03131595569 0.01712356596)
(0.0005754232341 0.04326833693 0.01334075521)
(0.02762260258 0.03576267884 0.01551996631)
(0.02218419985 0.05204956402 0.01150115459)
(0.04400208635 0.04402467405 0.01121340714)
(0.03801545073 0.04815348215 -0.000508396116)
(0.04986804132 0.03099048643 -0.0003526553332)
(0.02541694846 0.02411544361 -0.00625754857)
(0.01947125764 -0.0008250013057 0.001052476691)
(0.003094149805 -0.001798325135 0.001146063046)
(0.02147926757 -0.0001851120168 0.005436408)
(0.02194035638 0.01608371059 -0.003126342461)
(0.0155131261 0.003663327731 -0.003211869876)
(-0.01129176747 -0.005142270726 -0.006323318065)
(-0.02648603884 -0.01022675495 0.000704612278)
(-0.08000835623 0.006405134445 0.002123250879)
(-0.05686475031 -0.001485507146 0.01439461286)
(-0.04820738493 0.03570846296 0.01053259388)
(-0.01982270141 0.03210036758 0.01527082497)
(-0.02150225326 0.04982316491 0.01184024531)
(0.00301013384 0.03295808667 0.01746209022)
(0.001729610534 0.04813550206 0.012562042)
(0.02977159852 0.03746983827 0.01505023893)
(0.02383620685 0.05179743709 0.007503441415)
(0.04142242838 0.03901284859 0.008856963195)
(0.03252844783 0.0434651201 -0.004839838096)
(0.04095608398 0.02302130849 -0.001471157303)
(0.0148617704 0.01955709957 -0.007609451646)
(0.01135764482 -0.0008499248492 0.003190884075)
(0.00432929081 0.005140932688 0.001227773923)
(0.02714942294 0.00254989687 0.003794345488)
(0.02301924851 0.01199272283 -0.007407146447)
(0.008551093571 -0.003445709578 -0.004174514745)
(-0.01547828835 -0.007211543508 -0.00483579705)
(-0.02142387053 -0.009430937724 0.002727966536)
(-0.07735193592 0.01203795965 0.003360023425)
(-0.04586354016 0.001880625318 0.01554779357)
(-0.03556589984 0.04456211754 0.00937315125)
(-0.01626132162 0.03626733322 0.01286531557)
(-0.02235105756 0.05289876233 0.01140412727)
(0.002717208 0.03273888295 0.01715677367)
(0.003756281567 0.05281730938 0.0135843407)
(0.03027884897 0.03698608786 0.01344268857)
(0.02323786593 0.0487383435 0.007447957697)
(0.03818308797 0.02905474539 0.006493376911)
(0.02672473998 0.0339049782 -0.003286284679)
(0.03291226173 0.01088219188 -0.001425008421)
(0.008595603512 0.0137191036 -0.004815294844)
(0.009262216872 0.002448233931 0.003341808059)
(0.005469587617 0.01789313906 0.001016625894)
(0.02636258331 0.008519369331 0.0007667226795)
(0.01765499104 0.006226524818 -0.008492471001)
(0.001913997683 -0.01534356679 -0.003831241785)
(-0.01538266434 -0.01267408924 -0.00166063844)
(-0.0151092186 -0.01030250782 0.003265361504)
(-0.06990125968 0.01823039465 0.002986115277)
(-0.03400280704 0.00753645491 0.01477857063)
(-0.0237967166 0.04641479012 0.006832708539)
(-0.01406945682 0.03334326265 0.01104725687)
(-0.02392559488 0.0521503983 0.01035586575)
(0.002935408965 0.03210786076 0.01735789718)
(0.004703493231 0.05356750646 0.01197747243)
(0.02699072769 0.03369902461 0.01292548928)
(0.01820805429 0.04386330287 0.005222136039)
(0.03101605157 0.02072094583 0.006685460358)
(0.01968239846 0.02572947842 -0.003594462011)
(0.02662950157 0.0005783125173 0.0009748754586)
(0.008924206048 0.007952715554 -0.004495290167)
(0.01429021603 0.003926261631 0.002347161517)
(0.00862237511 0.02669704722 -0.004034357239)
(0.01890828451 0.01212343455 -0.002608817181)
(0.006151536015 0.0007769330161 -0.009255405278)
(-0.004869291321 -0.02494176776 -0.0008887235849)
(-0.0117932607 -0.01655326644 0.000449271199)
(-0.005523583958 -0.01266793204 0.004366446873)
(-0.05885335835 0.02452673132 0.001835381697)
(-0.0259841329 0.01264710194 0.01196358259)
(-0.01721571393 0.0443521721 0.005192113089)
(-0.01231872666 0.0260475953 0.01000863866)
(-0.02317740938 0.05338880254 0.01117535029)
(0.003723224549 0.03442580769 0.01654553647)
(0.00482905038 0.05447982014 0.01243824443)
(0.02355190339 0.0302578923 0.01174197878)
(0.01402280693 0.04234677851 0.006954981551)
(0.02543256772 0.01916620934 0.006155235028)
(0.01249643865 0.02724210001 0.0004214209516)
(0.02033350071 0.0004266440213 0.003256491878)
(0.01096069604 0.007853274598 -0.0003400723699)
(0.02246564465 0.001356307172 0.0002358510195)
(0.01128747714 0.02374868217 -0.00740783064)
(0.007983928348 0.006998261337 -0.006088834358)
(-0.008522121356 -0.003230102752 -0.006814846835)
(-0.01038793488 -0.02551199236 0.002171965006)
(-0.006603520689 -0.01397971326 0.003056038707)
(0.00522519709 -0.01220212111 0.004294544623)
(-0.04333570535 0.02776416617 1.575504876e-05)
(-0.01998268969 0.01364949039 0.008812704632)
(-0.01414544896 0.03879660783 0.003976049603)
(-0.007793579201 0.01686574255 0.01053888507)
(-0.01796359832 0.05374059577 0.01054392083)
(0.003695680512 0.03660070415 0.01560625545)
(0.001684669244 0.05319164734 0.01030802856)
(0.01855654484 0.02506790735 0.01160504618)
(0.01030060368 0.03907896389 0.005456941406)
(0.02040054583 0.01816193603 0.006224715368)
(0.006453019208 0.02988232913 -0.0007106784469)
(0.01290544628 0.005280857782 0.004761049644)
(0.009602846912 0.0104831465 -0.0003553271056)
(0.02545827273 -0.005429307774 -0.0003782681195)
(0.0126368959 0.00697788359 -0.01131856344)
(-0.0002052074085 -0.007971546903 -0.007198116458)
(-0.0168313851 -0.006481438387 -0.00588811996)
(-0.01249310611 -0.01891078662 0.00410460907)
(-0.002302500679 -0.004417053977 0.00262879779)
(0.01271148756 -0.008629967443 0.004184770219)
(-0.02932620862 0.02765551008 -0.001089576937)
(-0.0181604027 0.01071997823 0.006143764956)
(-0.01470344379 0.03456992793 0.004557741028)
(-0.001915519367 0.01099368819 0.01119957255)
(-0.009202653304 0.0549160186 0.01055415837)
(0.003330665864 0.03799588598 0.01296074053)
(-0.003377981637 0.05362556957 0.009956093195)
(0.01372291354 0.02229084562 0.01042115264)
(0.009069835666 0.03735452446 0.006945595715)
(0.01898140548 0.01652778866 0.004628231728)
(0.003403524903 0.03166447071 0.0005076249881)
(0.006576496948 0.01038474922 0.003519224615)
(0.00343378787 0.01528073687 0.001601868236)
(0.01992736941 -0.01030486642 -0.0006614420632)
(0.009517118965 -0.01002712879 -0.008768963154)
(-0.001484653476 -0.02284141319 -0.006207161367)
(-0.01630535813 -0.00805857281 -0.003343508178)
(-0.008920692876 -0.01081502018 0.003281614872)
(0.0007319836647 0.006156150628 0.001268466122)
(0.0142068044 -0.004203428874 0.002415960735)
(-0.01598075549 0.02441448192 -0.001822997566)
(-0.01505924419 0.003309993543 0.004721290039)
(-0.01373046932 0.0321968563 0.005060885116)
(0.006402262102 0.00769454129 0.01175437043)
(0.001137904145 0.05166684446 0.008165769414)
(0.002788795839 0.03163736529 0.01013269421)
(-0.009448491594 0.05016443319 0.007153006937)
(0.007210047314 0.01748935694 0.009605453586)
(0.006153248259 0.03206914757 0.005194307964)
(0.01643484441 0.007773153276 0.003980676202)
(0.002119142652 0.02338624914 -0.002321814468)
(0.001287012866 0.005619068904 0.001170601058)
(-0.004990148724 0.01472238985 -0.001011668025)
(0.007546672838 -0.01374543617 0.0001556366548)
(0.003791017561 -0.0164954835 -0.006036098922)
(0.001278402822 -0.02853214273 -0.002667785699)
(-0.008386177729 -0.007233027963 -0.00285571417)
(-0.00241055546 -0.007427036673 0.001675326365)
(0.002458107192 0.009406060445 -0.002458654287)
(0.01107456163 -0.003631437798 0.001177098794)
(-0.00952075071 0.02007931107 -0.001781384042)
(-0.01261725237 -0.005510614036 0.003730971802)
(-0.01143000263 0.03338984223 0.005600847307)
(0.01166409051 0.007642051129 0.0105798647)
(0.007747176687 0.04514781443 0.006144894661)
(0.00227559435 0.0199797487 0.006573703188)
(-0.01341967969 0.04478268194 0.005950727438)
(0.001091913703 0.01359808564 0.007573174343)
(0.00213777127 0.02860467211 0.005756723891)
(0.01291010222 -0.0009386782048 0.003119578552)
(0.00189296858 0.01276428329 -0.0008922659497)
(0.0004247981433 -0.005867836085 -0.001416181548)
(-0.01022177806 0.009438364969 -0.001308543652)
(-0.002150916957 -0.01306873543 0.0001195245607)
(-0.0009197719576 -0.007501680117 -0.001036097195)
(0.005115333202 -0.01845565496 6.363215516e-05)
(-0.001405481325 -0.0008328391991 -0.001129591959)
(0.002895855104 -0.008981803221 -0.0002943953411)
(0.003519039661 0.001938243771 -0.003601555683)
(0.009840384781 -0.007786102758 3.467098563e-05)
(-0.005437295079 0.01695302944 -0.001573865263)
(-0.005663654266 -0.01268135871 0.003099450602)
(-0.004296599056 0.03424610122 0.004578057183)
(0.01452633914 0.005752960066 0.00879139049)
(0.009912046679 0.03431812025 0.003484677051)
(0.002549354562 0.002833587491 0.00445721478)
(-0.01400749259 0.033270141 0.003377285257)
(-0.004069492535 0.005852270661 0.0061436743)
(-0.004177562973 0.0230728959 0.003530401144)
(0.005315801619 -0.009327211325 0.003595290358)
(-0.001359819964 0.002305483121 -0.0008914544831)
(-0.001097031157 -0.02002523852 -0.000784349094)
(-0.01005955521 6.269922859e-05 -0.003201794593)
(-0.004447963942 -0.01086706788 0.0003993049039)
(-7.116877343e-06 0.008709076833 -0.0006625013049)
(0.005997160246 -0.0009886700239 0.000952429422)
(-0.001704778292 0.008512821385 -0.002349426641)
(-0.0004134917235 -0.01182197761 -0.0003836131284)
(0.003414710758 -0.009720714287 -0.002976055413)
(0.01490134033 -0.01365371329 0.001167930585)
(-0.006227996961 0.01656409979 -0.001045357146)
(-0.0004581880877 -0.01566207129 0.00211811469)
(0.001731055533 0.03251438091 0.002899535247)
(0.01155943537 0.000601852859 0.006103052209)
(0.005767435604 0.02355594781 0.002462938251)
(0.001554866645 -0.01163739941 0.002838213627)
(-0.01132887357 0.02169908005 0.002918162128)
(-0.005969831327 -0.001377216781 0.004014603356)
(-0.008634776491 0.02011425773 0.003121141813)
(-0.001688122436 -0.009700876582 0.003296682021)
(-0.005681495552 0.002207975971 0.002791407093)
(-0.001181346741 -0.02179943769 0.001536331069)
(-0.003747849889 -0.002040066228 -0.000632541506)
(0.003910712357 -0.007080414885 -0.0004779313326)
(0.006043851143 0.0199649405 -0.0008587558374)
(0.004992549881 0.01041792489 -0.00151538966)
(-0.00912186464 0.01518216737 -0.002649312542)
(-0.009984420555 -0.01019214683 -0.000153039904)
(0.002344904263 -0.01098474397 0.001669843381)
(0.02601728765 -0.01430682502 0.0026099147)
(-0.004510398411 0.0184707753 -0.0006622669583)
(0.0055314545 -0.01679227937 0.001414014283)
(0.007328396161 0.02605613382 0.0009405970757)
(0.008113901918 -0.009490425557 0.004154426833)
(0.001362543363 0.01410098898 0.001714156447)
(0.001239668471 -0.02318301976 0.002683327594)
(-0.006821910283 0.01128420132 0.001699820438)
(-0.005096161655 -0.01008670609 0.002859396461)
(-0.01009623469 0.01639153645 0.000821514916)
(-0.007283083637 -0.007444241593 0.002998107166)
(-0.009922613024 0.008804189507 0.003230240557)
(-0.004123584755 -0.01401790889 0.004485088319)
(0.0003307417957 0.004529576188 0.0006709758812)
(0.01104429117 -0.004258457214 -2.586449593e-05)
(0.01233184648 0.01940447074 -0.003305110277)
(0.002638320844 0.007773436552 -0.003480178394)
(-0.01631902523 0.01582218576 -0.004502942323)
(-0.01892545069 -0.002469688257 0.001042953535)
(0.0006489338648 0.0035997813 0.004110586716)
(0.03242342936 -0.007043683845 0.004497482435)
(-0.004819897948 0.0208082129 -0.0001995091937)
(0.004730417781 -0.01579138604 0.0005775448261)
(0.006880079832 0.0181148691 -6.023055272e-05)
(0.002946677029 -0.02091757064 0.001995029462)
(-0.00390363968 0.008541661649 0.001631422649)
(-0.0004498141674 -0.02483216773 0.002045545766)
(-0.002070036577 0.006659500433 0.001658564348)
(-0.002206545594 -0.01510637915 0.001214401662)
(-0.006673615833 0.01346988353 0.000508712036)
(-0.006955595576 -0.005794311606 0.001053980607)
(-0.01029998781 0.01803705383 0.003956727893)
(-0.004251165302 0.001511594267 0.005298901886)
(0.003084757287 0.01914777368 0.003475881258)
(0.01434624781 0.00288804878 0.0001967038579)
(0.01451835134 0.01356519105 -0.002707416613)
(0.002448524435 -0.004720709267 -0.004698489358)
(-0.01626551289 0.01068132388 -0.003620691622)
(-0.0185651274 0.006763919468 0.0007178748935)
(-0.000710472403 0.02347787933 0.005337303639)
(0.0281698017 0.004747428775 0.00380227322)
(-0.0007152411787 0.02347599511 4.736102415e-05)
(0.003916019294 -0.01539415602 0.0002276901384)
(0.003950711503 0.01191119226 -0.0003298259756)
(0.001605357747 -0.03024207395 0.001217027631)
(-0.00129650339 0.006101336449 0.0006867036598)
(-5.173585127e-05 -0.02237951789 0.001200725591)
(-9.465462337e-05 0.006758824068 0.0004562672063)
(-0.0004194026028 -0.01963245312 0.000485341789)
(-0.003707106675 0.009826191365 -0.0005630712551)
(-0.00423760883 -0.005367068681 0.0009794865034)
(-0.00479889778 0.02519886996 0.001249575933)
(-0.00331764057 0.01605270207 0.002703597525)
(0.001382772167 0.03601654051 0.001498365455)
(0.007239440328 0.009983913088 0.0002482862407)
(0.007000253714 0.00589869847 -0.002217563613)
(0.0005524041398 -0.02040227664 -0.002159229579)
(-0.008204731051 0.001643536199 -0.002420186388)
(-0.01006457316 0.01388585729 0.0006700099281)
(-0.0008630579384 0.04141908386 0.002367176537)
(0.01213431296 0.01560000326 0.00198293466)
(-0.08395906134 0.0009748406896 -0.003411687989)
(-0.06606651485 0.0002725243309 0.02711678328)
(-0.06953450491 0.002730478793 0.01993880252)
(-0.03811000757 0.003358129419 0.04630613819)
(-0.03971362136 0.005332600075 0.03625122765)
(-0.00771699178 0.004621559627 0.04975167641)
(-0.01011558896 0.005276703031 0.03959602392)
(0.02310924028 0.004147178079 0.0420463297)
(0.01962359892 0.004260179295 0.03061130692)
(0.04260308518 0.003430878003 0.02748129297)
(0.03385604362 0.003677507111 0.0251530654)
(0.04989294726 0.003997107416 0.02491681377)
(0.04170776793 0.003541143953 0.01838960462)
(0.05459067563 0.0007938270259 0.003023578752)
(0.03753730833 -0.002327046012 -0.004943074712)
(0.02428709858 -0.004855639687 -0.01215828509)
(-0.006229210454 -0.002691403534 -0.001741359974)
(-0.008599971126 0.001739726822 -0.00114330175)
(-0.006292595072 0.00543341737 0.004587533744)
(0.008520969551 0.003585552851 -0.001833792315)
(-0.08299963494 0.002389265971 -0.00433420998)
(-0.06483633283 0.001219758753 0.02636253221)
(-0.06736729489 0.006812343555 0.01769040919)
(-0.03627133865 0.008442432104 0.04385949401)
(-0.03881557613 0.01253551863 0.03428260286)
(-0.007751902229 0.01169409671 0.04784512844)
(-0.01045989356 0.01395198374 0.03705480128)
(0.02241374616 0.01222072313 0.04038443909)
(0.01909925126 0.01247915096 0.03111780304)
(0.04222383387 0.01015409582 0.02805388181)
(0.03422063245 0.009614703517 0.02414336912)
(0.0497773058 0.01042383931 0.02198197548)
(0.03940962046 0.009760963344 0.0160484595)
(0.05042433992 0.004385692899 0.001848043902)
(0.03354359324 -0.002835063009 -0.003775581778)
(0.0240014611 -0.00964441083 -0.009552450211)
(-0.001555946071 -0.00526285875 -0.0001448257595)
(-0.002835426881 0.004660035573 -0.00391624597)
(-0.004924022539 0.01362331064 -0.001300281641)
(0.002040697509 0.008558206943 -0.00561186961)
(-0.08116705114 0.00478355172 -0.006003633892)
(-0.06299206732 0.001264023154 0.02566500252)
(-0.06441793083 0.01030331365 0.01555099355)
(-0.03411225156 0.00982877123 0.04239228863)
(-0.03739820474 0.01602945367 0.03253732527)
(-0.006715859003 0.01442747921 0.04611086235)
(-0.009743295041 0.02036008206 0.03347760434)
(0.02209108675 0.01847888226 0.0393701852)
(0.01812820271 0.01989824573 0.03211452123)
(0.04064696031 0.01510379705 0.03079300558)
(0.03398588051 0.01276472774 0.02278221771)
(0.05000809574 0.0121478018 0.01848964396)
(0.03741126962 0.01289035101 0.01088687467)
(0.04567801917 0.008015009706 -0.0005586171628)
(0.02761475963 0.001341138676 -0.003170124326)
(0.02254093927 -0.008094056156 -0.005026960284)
(0.003902705246 -0.003633432902 0.002658950325)
(0.004754891044 0.005145725062 -0.006613164662)
(-0.003402373054 0.01495114766 -0.009329639592)
(-0.00747665992 0.008219070824 -0.01030899544)
(-0.07842751476 0.006195971323 -0.007644808387)
(-0.06103165556 0.001758181546 0.02512828185)
(-0.0612058133 0.01180489858 0.01638133361)
(-0.03230035177 0.009520845949 0.04328308516)
(-0.03549149639 0.01823453555 0.03333615772)
(-0.004724103609 0.01705514493 0.0451492151)
(-0.007604287141 0.02553354228 0.03133979882)
(0.02212500434 0.02406954012 0.03803501756)
(0.01665995925 0.02768404999 0.03403206289)
(0.03728381308 0.02127535381 0.0323661895)
(0.03208388153 0.0176283599 0.02149892462)
(0.04986742197 0.01491723712 0.01241125358)
(0.03647801311 0.01625499674 0.004994179883)
(0.04226392469 0.01198783007 -0.005232109796)
(0.02216097703 0.007418685957 -0.002424147432)
(0.020478185 -0.00245574511 -0.001046313125)
(0.007804435584 0.0008026686251 0.005936945377)
(0.01030321505 0.004383330297 -0.008709416193)
(-0.002570575346 0.01100375627 -0.01396220132)
(-0.01477014954 0.004059355101 -0.01328244712)
(-0.07522342175 0.008282412169 -0.008613894885)
(-0.05911071843 0.002491185827 0.02566903305)
(-0.05881650162 0.01485535317 0.0182864134)
(-0.02965317144 0.009641692072 0.04572366766)
(-0.03198425974 0.02320977664 0.03335934979)
(-0.001598885248 0.02106371165 0.04557622013)
(-0.004781226735 0.0310302643 0.02976218232)
(0.02364664181 0.02806342766 0.03849541748)
(0.01610129861 0.03368623575 0.03381967835)
(0.03363881429 0.02666545271 0.03397282212)
(0.0294432687 0.02309239761 0.01797379276)
(0.0490413855 0.01756102575 0.007784933363)
(0.0353107661 0.01835240043 -0.002074389226)
(0.03943649484 0.01209860797 -0.007702368735)
(0.01741264272 0.009098708563 -0.002443946837)
(0.01786816272 -4.358114064e-05 0.00228734013)
(0.008747067133 0.003672978004 0.006388373714)
(0.01195979453 0.002335585997 -0.009734674494)
(-0.003432320457 0.005777446792 -0.01459913567)
(-0.01860913434 -0.0006238465121 -0.0127702541)
(-0.07052367394 0.009718957192 -0.007563448334)
(-0.05643373935 0.004650812228 0.0275444459)
(-0.05604716292 0.01948228903 0.02108335427)
(-0.0265038635 0.01316820366 0.04632619773)
(-0.0273468718 0.03024334095 0.03299628584)
(0.0007603639753 0.02658502908 0.04528681692)
(-0.002642980082 0.03733679604 0.03038776174)
(0.02403976977 0.03108998676 0.03667494846)
(0.01562743079 0.03937608453 0.03146968588)
(0.02989131517 0.0315401472 0.02916157458)
(0.02560304115 0.03120377337 0.01210425468)
(0.04650060287 0.02172837669 -0.0003202955775)
(0.03258290138 0.02166265599 -0.007018168894)
(0.03571094444 0.01032503431 -0.009814162715)
(0.01359306863 0.007534302889 0.000381870951)
(0.01663854678 -0.001602754008 0.002158348536)
(0.009505814383 0.004502537091 0.003835724618)
(0.01177292247 0.0005455810475 -0.01185144136)
(-0.0044710124 0.003226317862 -0.01152898598)
(-0.01890453604 -0.003131244072 -0.01006782866)
(-0.0647990212 0.01173340482 -0.004842073753)
(-0.0522498981 0.006315279035 0.03111008515)
(-0.05266962303 0.02685587787 0.02183783412)
(-0.02217665075 0.0189648337 0.04523383279)
(-0.02244706617 0.0389810855 0.02992194025)
(0.003386051938 0.03145298321 0.04595280595)
(-0.001581491719 0.04361030609 0.03027386987)
(0.02512906919 0.03305400501 0.03568337083)
(0.01638386794 0.04201810775 0.02557080011)
(0.02794285114 0.03295993872 0.02424775477)
(0.02247189299 0.03486025335 0.00503604241)
(0.04227790306 0.02310432086 -0.004362460618)
(0.02723597723 0.02200830326 -0.01049849485)
(0.02943729983 0.006719204986 -0.007225956995)
(0.008992293309 0.004409110383 0.002570878824)
(0.01571381117 -0.005175321451 0.0005934404727)
(0.01029111833 0.00280582246 -0.003048975711)
(0.01104101813 -0.001231009229 -0.01484264608)
(-0.005873245564 0.002883295295 -0.008626338059)
(-0.01913450874 -0.003654467575 -0.006472565049)
(-0.05752804166 0.01258193036 -0.0009292496358)
(-0.04577513031 0.005667257862 0.03498985722)
(-0.04695697229 0.03286952075 0.02168760929)
(-0.01806378496 0.0246983084 0.04153298639)
(-0.01845472223 0.0452787335 0.0277948706)
(0.004009105017 0.03298606584 0.04538739187)
(-0.001516568184 0.04854509707 0.03110382163)
(0.02296955961 0.03348441359 0.03159655476)
(0.01552386204 0.04410366068 0.0197825667)
(0.02489913781 0.030037708 0.01517243005)
(0.01863679835 0.03819941032 -0.002672187153)
(0.03736480438 0.02096281297 -0.01045452425)
(0.02103878939 0.02230807413 -0.01102514145)
(0.02325443597 0.0034773572 -0.006166688882)
(0.005201903341 0.004909057649 0.004814498786)
(0.01549704177 -0.006309963875 -0.003827692882)
(0.01231854302 0.001794836455 -0.009370254418)
(0.01182295837 -0.004625643131 -0.0180668372)
(-0.00604532236 0.001677150394 -0.005359625953)
(-0.01877087269 -0.004551830177 -0.003687657354)
(-0.05166802465 0.01370898276 0.00128068376)
(-0.03794133211 0.002647501759 0.03774121417)
(-0.0391085017 0.0374837445 0.0182546726)
(-0.01354315045 0.02827913091 0.03696571109)
(-0.01651118938 0.05001297359 0.02472036611)
(0.005672069776 0.03250085076 0.04547959938)
(-0.00124927349 0.05163600377 0.02918209046)
(0.02205706789 0.03291433009 0.02952032499)
(0.01390288144 0.04438391809 0.0157692624)
(0.02381878173 0.02490361503 0.01281423592)
(0.01606343814 0.03628210186 -0.001851567012)
(0.03099681396 0.01550231708 -0.008627314884)
(0.01493940184 0.01962502314 -0.009498487382)
(0.01712809205 0.000837463604 -0.004673578242)
(0.002089884903 0.007904524194 0.00145578912)
(0.01352229544 -0.003678139801 -0.008668645696)
(0.01149175718 0.00270540952 -0.01399745806)
(0.01096672815 -0.009123868972 -0.01673207131)
(-0.005691420603 -0.002571889433 -0.001438937406)
(-0.01746812342 -0.007167605404 -0.001277281099)
(-0.04575942349 0.01535891502 0.001948168431)
(-0.02897043075 0.0007256969966 0.03678557947)
(-0.02875768159 0.03843624989 0.01484050273)
(-0.009360931799 0.02794012878 0.03209718926)
(-0.0153853952 0.05167295123 0.02460866668)
(0.005127829145 0.03090050068 0.04400584491)
(-0.001259298198 0.05133397649 0.02813729774)
(0.01792514049 0.03044890925 0.02605532792)
(0.009827274092 0.04290452335 0.01529270914)
(0.01921005771 0.02004757039 0.01088834581)
(0.01199317585 0.03279413445 0.0001293183304)
(0.02553337426 0.009451914412 -0.006700843771)
(0.01073276151 0.0164243319 -0.005702527365)
(0.01494649069 -0.002020885793 -0.007406753113)
(0.002016795449 0.01067204115 -0.005032511309)
(0.01183038387 -0.0009962521225 -0.0156865807)
(0.008456699886 0.00392102789 -0.01393783306)
(0.008091999834 -0.01356890978 -0.0118707032)
(-0.004552434213 -0.007562075274 0.004298167082)
(-0.01220843851 -0.01070571041 0.0005099262946)
(-0.04009116333 0.01890562089 -0.0002181327683)
(-0.02160518796 0.001281542043 0.03234711968)
(-0.01978840649 0.03889197448 0.01050367713)
(-0.004324070691 0.02513365636 0.02936468385)
(-0.01435162582 0.05372939797 0.02351562436)
(0.005423750432 0.03104307944 0.04249225954)
(-0.001627686148 0.05126272114 0.02443130541)
(0.01620171391 0.02774045535 0.0250614634)
(0.006500024798 0.04276650043 0.01470503322)
(0.01670308661 0.01827453601 0.01226827354)
(0.008590765709 0.03272709219 0.002658685189)
(0.0193711791 0.007605077431 -0.0008976318267)
(0.006878589531 0.01569006871 -0.002513721017)
(0.01300851334 -0.003891123863 -0.008626665608)
(0.002806209908 0.009853912234 -0.01446453694)
(0.008741945079 -0.001820441844 -0.02085166664)
(0.002572723867 0.003122030069 -0.01236274453)
(0.002842303205 -0.01602575264 -0.004693512573)
(-0.003595220164 -0.009868068531 0.008436762124)
(-0.004843485025 -0.01255512867 0.002369337312)
(-0.03128763278 0.02223757454 -0.002875050572)
(-0.01478951677 0.002568549875 0.02531406131)
(-0.01179148363 0.03756922128 0.009099455428)
(0.0009998431002 0.01918678731 0.0284897317)
(-0.01114412908 0.0525642404 0.02450090236)
(0.003390424424 0.02974785091 0.03867407152)
(-0.003682233019 0.04845681602 0.02344030377)
(0.01205095894 0.02254324031 0.02323032014)
(0.003056664829 0.03905245858 0.01635081566)