/*--------------------------------*- C++ -*----------------------------------*\
| =========                 |                                                 |
| \\      /  F ield         | OpenFOAM: The Open Source CFD Toolbox           |
|  \\    /   O peration     | Version:  5.x                                   |
|   \\  /    A nd           | Web:      www.OpenFOAM.org                      |
|    \\/     M anipulation  |                                                 |
\*---------------------------------------------------------------------------*/
FoamFile
{
    version     2.0;
    format      ascii;
    class       volScalarField;
    location    "6";
    object      T;
}
// * * * * * * * * * * * * * * * * * * * * * * * * * * * * * * * * * * * * * //

dimensions      [0 0 0 1 0 0 0];

internalField   nonuniform List<scalar> 
30538
(
276.8972258
273.045004
273.0129417
273.0161509
273.0163255
273.0167479
273.0211573
273.0233963
273.022079
273.0252653
273.0398721
273.0516603
273.0451858
273.0332979
273.0333092
273.0401719
273.038031
273.0224825
272.9939583
271.9872951
276.9007095
273.0454509
273.0053877
273.0062964
273.008492
273.0104141
273.0147992
273.0199207
273.0229316
273.025443
273.0332886
273.041728
273.0399562
273.0324803
273.0299001
273.0314391
273.0295954
273.0199121
272.9959125
271.9976401
276.8760429
273.0512611
273.0029403
273.0013639
273.0060455
273.0089426
273.0124053
273.02001
273.0282273
273.0304552
273.0297359
273.0338723
273.038392
273.0367063
273.0305174
273.0245263
273.0226995
273.0218418
273.0050893
271.9983079
276.8717253
273.0562673
273.0022444
272.99986
273.006404
273.0094577
273.0111277
273.0189768
273.0303652
273.0331947
273.0267464
273.0270346
273.0368015
273.0403448
273.0306314
273.0175315
273.0155311
273.0227958
273.0132942
272.0188295
276.7807412
273.0550249
273.0037348
273.0020216
273.0083624
273.0110294
273.0118593
273.0177548
273.0283973
273.0323104
273.0262197
273.0249188
273.0353617
273.0413279
273.0311491
273.0148479
273.0115749
273.021457
273.015437
271.9943533
276.7302126
273.0489749
273.0052647
273.0054449
273.0102397
273.0120761
273.0136838
273.0168787
273.0233808
273.028536
273.0285525
273.0278618
273.0340599
273.0387909
273.0314849
273.0169362
273.0122711
273.0182771
273.0111785
272.0051162
276.5617642
273.0399403
273.005754
273.0081803
273.0105034
273.0116218
273.0146189
273.0158646
273.0180069
273.0244008
273.0313072
273.0321517
273.0319097
273.0333761
273.0305542
273.0218722
273.0161896
273.0136936
273.0022204
271.9630422
276.4828708
273.0333389
273.0059877
273.0096038
273.009629
273.0100154
273.0137837
273.0140962
273.0141731
273.0208962
273.0324866
273.0341052
273.0289151
273.0268865
273.0278368
273.0259245
273.0197387
273.009514
272.9931055
271.9776372
276.2555658
273.0298762
273.0069702
273.0099282
273.0082453
273.0084671
273.0118453
273.0120326
273.0127148
273.0183793
273.030434
273.0330838
273.0264545
273.0220901
273.0239388
273.026059
273.0206925
273.0067232
272.9872275
271.9581476
276.1577725
273.0315298
273.0084108
273.0085654
273.0069031
273.0080183
273.0108137
273.0113626
273.0133304
273.0163105
273.0252596
273.0295278
273.025578
273.0206636
273.0200951
273.0219939
273.0184267
273.0064245
272.9878477
272.0125631
275.8671652
273.0313088
273.0089324
273.0061732
273.0059709
273.0091191
273.0118812
273.0131775
273.0149682
273.0141315
273.0189885
273.0248385
273.0260714
273.0219138
273.0170543
273.015318
273.0140642
273.008519
272.9949048
272.0444386
275.7410994
273.0307475
273.0084269
273.0041092
273.0054509
273.0107075
273.0146408
273.0160089
273.0161983
273.012381
273.0143574
273.0206325
273.0256638
273.0230545
273.014703
273.0091598
273.0097678
273.011372
273.0039624
272.1325901
275.3737373
273.0271454
273.0079537
273.0037788
273.0058937
273.0113274
273.0163211
273.0174154
273.016169
273.0121837
273.0128409
273.0174232
273.0225691
273.0213781
273.0127305
273.0056702
273.0066881
273.0132947
273.0106172
272.1975163
275.2243902
273.0245924
273.0087778
273.0056047
273.0069399
273.0106278
273.0148133
273.0162746
273.0153005
273.0133178
273.0146578
273.0153273
273.0170577
273.016836
273.0110139
273.0045852
273.0048858
273.0125978
273.0126961
272.2950292
274.7964978
273.0206812
273.0103406
273.0082237
273.0081951
273.0091463
273.0110066
273.013825
273.0153404
273.0153423
273.0167307
273.0133752
273.0108321
273.0112741
273.0091045
273.0048743
273.0038593
273.0096235
273.0101134
272.381308
274.6366308
273.0177846
273.010563
273.0092681
273.0092239
273.0084477
273.0087381
273.0128786
273.0165023
273.0161391
273.0160885
273.01117
273.0072473
273.0076188
273.0069127
273.0044052
273.0028325
273.0062404
273.0063138
272.4859668
274.15667
273.0129537
273.007561
273.0078507
273.0095644
273.0083603
273.008721
273.0141049
273.0180074
273.0152244
273.0118381
273.0081503
273.0068327
273.0066733
273.0048873
273.0029613
273.0018401
273.0043942
273.0051459
272.6061954
273.9934338
273.0087602
273.0025863
273.0047121
273.0089617
273.007937
273.009424
273.0151778
273.0180462
273.0123962
273.0057324
273.004648
273.0078993
273.007308
273.0033349
273.0010735
273.001243
273.0039527
273.0055134
272.7206141
273.4642417
273.0325004
272.9999836
273.0502523
273.0135698
273.0633003
273.018428
273.0587621
273.0215725
273.0339405
273.0028849
273.012767
273.006459
273.0113537
272.9961528
273.0000426
272.9935987
273.0040674
273.0029068
272.8557772
270.3155348
277.5742985
271.497817
278.5173044
272.7105563
278.7203842
273.4025945
278.1594924
273.4686565
277.0057885
272.9270127
275.5891536
272.1685148
274.3444182
271.5565539
273.5817232
271.3970412
273.4936193
271.7209296
273.8583498
277.6371123
273.065435
273.0083078
273.0086304
273.0174963
273.0187954
273.018968
273.0217635
273.0236897
273.0229407
273.0280845
273.0383181
273.0400732
273.0308825
273.0226173
273.021601
273.0231235
273.0185631
272.9934361
271.7235994
277.6338242
273.06088
273.0056004
273.005599
273.0102745
273.0110759
273.0120781
273.0169033
273.0222648
273.0234038
273.0253541
273.0309929
273.0324625
273.0272345
273.0207875
273.0172647
273.0170178
273.0145792
272.9922466
271.7213088
277.6034115
273.0583247
273.0070718
273.007375
273.0082654
273.0079526
273.0093659
273.0154826
273.0243083
273.0284471
273.0275543
273.0267892
273.027902
273.0281347
273.0238692
273.0168818
273.0137928
273.0138815
272.9955667
271.710772
277.5820291
273.0548655
273.0077244
273.0090715
273.0076843
273.0068126
273.0086005
273.0142459
273.0238299
273.0305003
273.0292359
273.0237623
273.0240639
273.0288
273.0266084
273.0162422
273.0102238
273.0115293
272.9969352
271.7004431
277.4957186
273.0523191
273.0079041
273.0100922
273.0083747
273.0074627
273.0102454
273.0147832
273.0216848
273.0282258
273.0293016
273.0233476
273.0227488
273.0281181
273.0274217
273.0168865
273.0091444
273.0087134
272.9951706
271.6691279
277.4382441
273.0522848
273.0064935
273.0088177
273.0086799
273.0086842
273.0129305
273.0166024
273.0193159
273.0231113
273.0273086
273.0251113
273.0237657
273.0261575
273.0255805
273.018107
273.0108664
273.0069899
272.9920172
271.6503001
277.2799655
273.0498957
273.0039501
273.0056555
273.0076377
273.009399
273.0150836
273.01788
273.0170022
273.0178395
273.0245578
273.0276879
273.0260372
273.02339
273.0213754
273.0188498
273.0139612
273.0068392
272.9889015
271.6231936
277.1763126
273.0457879
273.0020514
273.0029487
273.0064493
273.0099074
273.0153805
273.0169161
273.0146204
273.0142583
273.02203
273.0289811
273.0272967
273.0204297
273.0165328
273.0175412
273.0158125
273.0073235
272.9873653
271.6228043
276.9341304
273.0402453
273.0031351
273.0032763
273.0068286
273.0111311
273.0138505
273.0134521
273.0129201
273.0128791
273.0202331
273.0277491
273.0270608
273.0187573
273.0127874
273.0142004
273.0149585
273.0077685
272.9879176
271.6326773
276.7886519
273.0382223
273.0067887
273.0057712
273.0082396
273.0123017
273.0115848
273.0105693
273.0127933
273.0134908
273.0181754
273.023753
273.0250193
273.0187145
273.0113577
273.0102957
273.0115451
273.007718
272.9906067
271.6756493
276.4664584
273.0369661
273.0098985
273.0073157
273.0086433
273.0117127
273.0102892
273.0103139
273.014341
273.0144153
273.0153686
273.0180937
273.0217447
273.0195561
273.0119629
273.0067525
273.0067554
273.0070651
272.9946437
271.7404839
276.2857212
273.0366312
273.0104444
273.0071934
273.0076796
273.0091264
273.0101276
273.0126007
273.0160052
273.0143523
273.012592
273.0127947
273.017306
273.0186909
273.0122082
273.0043553
273.0023426
273.0057548
272.9983489
271.8232425
275.8712239
273.0317286
273.0086833
273.0074149
273.007251
273.0067061
273.0104354
273.0147327
273.0158612
273.0132371
273.0113047
273.0100669
273.0125686
273.0147066
273.0106775
273.0030426
272.9996206
273.0038277
273.0004531
271.9314277
275.653875
273.0262283
273.007698
273.0095215
273.0088914
273.0064146
273.0105718
273.0150927
273.0132869
273.0114233
273.0121296
273.0101453
273.0083689
273.008736
273.0071322
273.0022438
272.9988672
273.0019409
273.0002894
272.0353703
275.1620128
273.0190815
273.0090869
273.0127429
273.0120232
273.0078575
273.0096944
273.0136342
273.0102934
273.0100505
273.0141821
273.0112671
273.0054737
273.0029335
273.00283
273.0018458
272.9993487
273.0002383
272.9988037
272.1776662
274.9326782
273.015395
273.0107751
273.0137819
273.013665
273.0089893
273.0085669
273.0115468
273.0095875
273.0098827
273.013359
273.0102678
273.0040926
273.0002065
272.999943
273.0011351
272.9998889
272.9994776
272.9977503
272.2987953
274.3849239
273.0113871
273.0095401
273.0113033
273.0117565
273.0080167
273.0069409
273.0099135
273.0113812
273.010747
273.0094527
273.0060402
273.0034163
273.0007182
272.9995998
273.0006213
273.0000704
272.9994952
272.9982698
272.4769538
274.1620666
273.0091001
273.0053035
273.0065344
273.0071845
273.0056289
273.0049038
273.0082652
273.0133454
273.0111018
273.0036191
273.0001431
273.0022127
273.0024042
273.0008485
273.0002826
272.9999222
272.9998081
272.9992487
272.6084487
273.559736
273.0367388
273.0028842
273.0569669
273.0123029
273.0674895
273.0164543
273.0578591
273.0207846
273.0381242
273.0017412
273.0073714
272.9988985
273.0068887
272.9935404
272.9990215
272.9903076
272.9994951
272.9970039
272.8006068
270.3144403
277.8903461
271.7483331
279.042537
273.1901955
279.3244879
273.9786906
278.6916392
273.9260513
277.374603
273.1320544
275.7501238
272.0912095
274.3554807
271.2784327
273.5472417
271.0310681
273.5109352
271.3969999
273.9818182
278.3471725
273.0898942
273.0065178
273.0044555
273.0208593
273.021494
273.0178646
273.0216844
273.028371
273.024607
273.0160576
273.0194785
273.0291342
273.0274457
273.0119378
272.9997782
273.0031095
273.0125723
272.9921203
270.8557099
278.3388601
273.0786569
273.0097398
273.0100656
273.0162405
273.0140654
273.0107186
273.0145372
273.02233
273.022886
273.0175537
273.0164515
273.0196347
273.0189551
273.0100655
273.0006405
273.0011959
273.00681
272.985641
270.8474174
278.2841208
273.0649922
273.0150958
273.0190432
273.0146975
273.0108204
273.0095841
273.0119445
273.0183929
273.0246922
273.0260673
273.0193784
273.0134506
273.0140164
273.0137961
273.0079099
273.0044602
273.0037507
272.9811982
270.7897181
278.2661297
273.0509462
273.0153467
273.0222366
273.0119356
273.0085792
273.0115856
273.0119658
273.0137384
273.0240863
273.0331437
273.0231103
273.0096932
273.0100181
273.0169984
273.0149254
273.0072089
272.9994774
272.9753309
270.7778727
278.1583875
273.0474388
273.011881
273.0193253
273.0103024
273.0082914
273.0139764
273.0141294
273.0125678
273.0215202
273.0323741
273.0243385
273.0100218
273.0084499
273.0164658
273.0182645
273.0096156
272.9970096
272.9707778
270.6851919
278.1338789
273.0567602
273.0071845
273.011691
273.0090941
273.0089998
273.0151902
273.0171366
273.015596
273.0178928
273.0241506
273.021896
273.0137615
273.0093326
273.0127765
273.016816
273.0108683
272.9975102
272.9711597
270.6953404
277.9522573
273.06388
273.0030661
273.003284
273.0073456
273.0101465
273.0152332
273.0195451
273.0194534
273.0141413
273.0135322
273.0192076
273.0195458
273.0120416
273.0077345
273.0109657
273.0100109
273.0008674
272.9762483
270.6256916
277.8768535
273.0650497
273.000441
272.9979358
273.0067252
273.0123813
273.0151333
273.0198414
273.0208384
273.0111146
273.0063733
273.0180233
273.025416
273.0149929
273.0031209
273.0032379
273.0068499
273.0049693
272.9842197
270.6845888
277.5665118
273.0539857
273.0014069
272.9993323
273.0088855
273.0159343
273.0153534
273.0173202
273.0181018
273.0094229
273.0057411
273.0174797
273.0266238
273.0169855
273.0017111
272.9976317
273.0027093
273.0074331
272.9914426
270.6792926
277.4305376
273.0443519
273.0058631
273.0057226
273.0129969
273.0188039
273.0144089
273.0135194
273.0140937
273.0102599
273.0092823
273.0154298
273.0218496
273.016519
273.0038912
272.9964084
272.9994447
273.0069367
272.9951135
270.7975355
277.0142529
273.0386507
273.0105307
273.011802
273.0151486
273.0163746
273.0115244
273.011257
273.0127187
273.0130426
273.0123137
273.0108161
273.0130529
273.013726
273.0073709
272.999055
272.9971732
273.0035098
272.9943003
270.8700673
276.8588067
273.041377
273.0131266
273.0148638
273.0140027
273.009422
273.0078678
273.0116158
273.0148483
273.015571
273.0127061
273.0056258
273.0045559
273.0087329
273.0088561
273.0020205
272.9960937
272.9980164
272.9900576
271.0356252
276.329387
273.0384612
273.0119318
273.0155827
273.0123091
273.003947
273.006102
273.0129723
273.0159489
273.0147291
273.0104825
273.0027437
272.9992807
273.0031957
273.0065321
273.0024614
272.9951128
272.9928494
272.9861566
271.1855782
276.1319581
273.032961
273.0094681
273.0162352
273.0137497
273.0043271
273.0085408
273.0144904
273.0129841
273.0105652
273.0081213
273.00329
272.9989751
272.9981372
273.0004782
273.0000971
272.9946007
272.9904758
272.98459
271.3943385
275.4899494
273.0203334
273.0089745
273.0176682
273.0184091
273.0101486
273.0119983
273.0138516
273.0068013
273.0055192
273.0077275
273.006514
273.0012291
272.9947729
272.993875
272.9966101
272.9948649
272.9911893
272.9858025
271.6136005
275.2764299
273.0133367
273.0102255
273.0175988
273.0203212
273.013668
273.0121611
273.0104959
273.003141
273.0037317
273.0073821
273.0068305
273.0021461
272.9939057
272.9914802
272.9950348
272.9963776
272.9937973
272.9883439
271.844531
274.5705682
273.0084803
273.0106045
273.0150736
273.0158032
273.0116468
273.007937
273.0050451
273.0036783
273.0063824
273.0062119
273.0027402
272.9992293
272.9945793
272.9937381
272.9966533
272.9981933
272.9964463
272.9909589
272.1124737
274.3797234
273.0096254
273.0099792
273.011068
273.0068326
273.0064395
273.0020206
273.0002194
273.0067321
273.0106261
273.0044204
272.996727
272.9937309
272.9953049
272.9980629
272.99924
272.9991907
272.9974779
272.9925032
272.3495927
273.6139059
273.0504544
273.0094771
273.0784444
273.0088547
273.0806419
273.0115159
273.0566899
273.0157212
273.0405073
273.0039952
273.0010949
272.9876705
272.9949488
272.9909326
272.9932317
272.9887301
272.9924295
272.9904939
272.6363616
269.7945062
278.8001086
271.4588778
280.1249136
273.1193716
280.2988818
274.0253266
279.2773462
273.9272714
277.4851836
273.0038536
275.3618139
271.7951885
273.5832496
270.9402236
272.6168101
270.8168218
272.6823509
271.4732345
273.4165112
280.6829771
273.1350175
273.0092917
273.0084482
273.0218216
273.0186031
273.0132755
273.0222591
273.033216
273.0275291
273.0091779
273.0012681
273.0109441
273.0164328
273.005061
272.9893244
272.9895908
273.0040693
272.9815844
269.6342637
280.6795532
273.1193103
273.0154173
273.0183653
273.0207187
273.0154238
273.0099152
273.0130469
273.0202244
273.0202674
273.0116968
273.003861
273.0040913
273.0051211
272.9996299
272.9894807
272.9890611
272.9972404
272.9712114
269.5845189
280.6512744
273.1013139
273.0214214
273.0293169
273.0206525
273.0158666
273.0145224
273.0105511
273.0092175
273.0156793
273.02135
273.0137814
273.0015997
272.997129
272.9989622
272.9973707
272.996192
272.9946834
272.9630092
269.4965239
280.6406046
273.0831105
273.0190075
273.0296503
273.0156748
273.0148388
273.0212555
273.0121526
273.0010315
273.0120001
273.0289284
273.0225295
273.0009627
272.9913727
272.9986402
273.0063262
273.0044226
272.9932373
272.9555839
269.3858935
280.5822052
273.0794531
273.0105813
273.0198126
273.0119996
273.0147563
273.0221115
273.0135817
273.0028095
273.0115584
273.027304
273.0235832
273.0028823
272.9905795
272.9968184
273.0103379
273.0102233
272.9936833
272.9517609
269.2662978
280.5548686
273.091985
273.0034207
273.0074652
273.0103657
273.0154087
273.0156306
273.0130022
273.0116896
273.0140731
273.0171688
273.0156842
273.0057405
272.994561
272.9946569
273.0071076
273.0100623
272.9952161
272.9553538
269.1676029
280.400631
273.1056508
273.0018037
272.9996325
273.009765
273.0155657
273.0087418
273.0127567
273.0219073
273.0163514
273.0036899
273.005081
273.0098646
273.0021019
272.9937358
272.9984563
273.0032202
272.9976055
272.965963
269.1177937
280.2725865
273.1115147
273.0032491
272.9974837
273.0103141
273.0162929
273.0072529
273.0148029
273.0271384
273.0167001
272.9939875
272.9983388
273.0139955
273.0111106
272.9947825
272.9879903
272.9929552
273.0003536
272.9816192
269.1054077
279.9145521
273.096593
273.0039484
273.0007445
273.0126196
273.0180969
273.0119074
273.0173009
273.0241578
273.013325
272.9966698
272.997988
273.0143219
273.0156725
272.9981116
272.9816336
272.9846546
273.0016701
272.9946188
269.1819603
279.6307937
273.0746369
273.0042648
273.0081903
273.0173808
273.0198505
273.0167374
273.0175669
273.0149031
273.0088342
273.0017304
272.9995385
273.0076352
273.0125191
273.001505
272.9834781
272.9822097
273.0000251
272.9984332
269.2779074
279.0890383
273.0584467
273.0066247
273.016603
273.0213389
273.0165078
273.0154986
273.0145759
273.008291
273.0083588
273.0082678
273.0002369
272.9970633
273.0027793
273.0037429
272.9927352
272.9862437
272.9944374
272.9906408
269.4823815
278.7474652
273.058211
273.0113226
273.0232414
273.0223328
273.0097231
273.0084459
273.0107413
273.0081056
273.0111714
273.0118626
272.999696
272.9890829
272.9920851
273.002346
273.0026244
272.9924338
272.9867275
272.977006
269.6768054
278.0395551
273.0573232
273.0150509
273.0249089
273.0204202
273.0049875
273.0042835
273.0098238
273.012038
273.0120537
273.0095225
272.9996101
272.9885635
272.985813
272.9966773
273.0056798
272.9966472
272.9814931
272.9658802
270.0068721
277.6212574
273.0525299
273.0140278
273.0220344
273.0189198
273.0078575
273.0085721
273.0125377
273.0133314
273.0079018
273.0011186
272.9995307
272.994705
272.9853734
272.9876672
273.0000271
272.9978617
272.9824526
272.9650155
270.300908
276.7472339
273.0340655
273.01001
273.0170624
273.0201318
273.0159633
273.0167374
273.0141872
273.0094991
273.0008744
272.9928496
272.9997371
273.0030451
272.9890205
272.9808063
272.9890882
272.9967056
272.9894653
272.9743295
270.7480125
276.3054415
273.0193939
273.0064452
273.0134114
273.0194395
273.0190393
273.0180156
273.0097625
273.0027189
272.9977674
272.9911296
272.9969721
273.003562
272.9920914
272.9806715
272.9825535
272.994548
272.9967656
272.9856151
271.0854582
275.3407793
273.0080226
273.0065821
273.0125668
273.014123
273.0154429
273.0119923
273.0002388
272.9970927
273.0016276
272.9985505
272.994167
272.9938887
272.9917725
272.9872027
272.9850648
272.9930795
272.9986199
272.9910975
271.5883787
274.9569024
273.0087719
273.0120205
273.0158256
273.0067306
273.0094625
273.0044935
272.9932008
272.99423
273.0096601
273.0112421
272.9940808
272.981448
272.9884141
272.9960295
272.9925387
272.9925197
272.9962731
272.9908039
271.9141414
273.9246391
273.065766
273.0216809
273.1223623
273.0227344
273.1210846
273.0295629
273.0778817
273.0132294
273.0557451
273.0219055
273.0075038
272.9721701
272.9822075
272.9866201
272.9870089
272.9808769
272.9876578
272.9860864
272.4314089
269.7571096
279.8918698
272.2677254
281.9470054
274.7785637
282.3807669
276.078785
281.0647401
275.5248393
278.639874
273.7095981
275.7836549
271.4761896
273.406307
269.863286
272.2433761
269.4185005
272.5835779
270.3322105
273.8091413
282.5170861
273.1573353
273.0189529
273.0225259
273.0232542
273.0177833
273.0152108
273.0185066
273.0254743
273.0263885
273.0124123
272.9917024
272.986511
272.9954162
272.9989019
272.9922763
272.9895739
272.9963414
272.9587096
267.3587113
282.5430179
273.1442742
273.0160999
273.0238698
273.0234552
273.019173
273.0128946
273.0109777
273.0148742
273.0166728
273.0094777
272.9956582
272.9876094
272.9864968
272.9875849
272.9854938
272.9854272
272.9896423
272.9506942
267.2978013
282.5394435
273.1366429
273.0170062
273.0269558
273.0235924
273.0222897
273.0197512
273.0133257
273.0082628
273.0074639
273.0095912
273.0071589
272.9953134
272.9825468
272.9809102
272.9854214
272.9894903
272.9897808
272.9486875
267.1040507
282.6249671
273.1349417
273.0157411
273.0232991
273.01742
273.0215358
273.0293353
273.0182846
273.0016944
272.9977457
273.0091349
273.0167776
273.0027223
272.9817117
272.9773829
272.987921
272.9969636
272.993433
272.949887
266.9726675
282.5683353
273.1323338
273.0087934
273.0127009
273.0133163
273.0221745
273.0297443
273.0167713
273.0005929
272.9983112
273.0092005
273.0163867
273.0028338
272.9829473
272.9775049
272.9904659
273.0013336
272.9965763
272.9523169
266.6901267
282.6041541
273.1321085
273.0025335
273.0034998
273.0128185
273.0250554
273.0186988
273.0074068
273.004336
273.0094981
273.0104225
273.0051825
272.9960035
272.9849004
272.9811852
272.9907184
272.999587
272.9966289
272.9566419
266.5965443
282.3916215
273.1327092
273.0046754
273.0025595
273.0150713
273.0261611
273.0059503
273.0000608
273.0113934
273.0204252
272.9250428
272.9908839
272.9892151
272.9908886
272.98865
272.9886111
272.9918583
272.993909
272.9648234
266.3986116
282.3180279
273.140565
273.0117215
273.0078101
273.0161053
273.0222602
273.002243
273.003167
273.0202547
273.0244272
272.6785465
272.9806875
272.9868014
273.0008807
272.9982403
272.9839862
272.9808823
272.9908999
272.9763061
266.4606057
281.8430287
273.1292224
273.0119751
273.0120631
273.0153573
273.0169197
273.008929
273.0128262
273.0208001
273.0230019
272.9964256
272.9799081
272.9865428
273.0054294
273.0028444
272.9805136
272.9737792
272.9901986
272.9880158
266.4904986
281.5805346
273.1126337
273.0059393
273.0145733
273.0170367
273.0142945
273.019185
273.0208832
273.0134247
273.0115059
273.0026501
272.982016
272.9835359
273.0000555
272.9998066
272.9802441
272.9737718
272.9900195
272.9937671
266.7488185
280.8190583
273.0881906
273.003121
273.0192065
273.0217663
273.0155902
273.0230476
273.0190441
273.0035526
273.0039508
273.0035188
272.9872542
272.9797705
272.9875796
272.993075
272.985922
272.9807772
272.9875977
272.9875191
267.0281329
280.459094
273.0804137
273.0079331
273.0250376
273.0278433
273.0194386
273.017637
273.0082729
272.9983957
273.0037241
273.0062379
272.9916848
272.9787299
272.9767391
272.9868258
272.9940294
272.9894766
272.9823393
272.9724918
267.4470876
279.4372074
273.0713581
273.0161747
273.0262845
273.0287781
273.0221316
273.0099363
273.0015461
273.002102
273.0080836
273.0049209
272.9934858
272.9818067
272.9732397
272.9818915
272.9977528
272.9954793
272.9781852
272.9588085
267.9650977
279.0065204
273.0708468
273.0192894
273.0202143
273.0229864
273.0235839
273.0104502
273.0045078
273.0107813
273.0093932
272.9961432
272.9919816
272.9886374
272.9777899
272.9779043
272.9933469
272.9965584
272.980468
272.9577092
268.5256249
277.7543908
273.049554
273.0133826
273.0105727
273.016547
273.023438
273.0159942
273.010204
273.0155808
273.0040757
272.983452
272.9881371
272.9958205
272.9853687
272.975742
272.9828872
272.993304
272.9887702
272.9701593
269.2504672
277.3035971
273.033873
273.0039248
273.0048616
273.0113073
273.0189115
273.0178266
273.0107733
273.0102146
272.9978337
272.9797154
272.9849063
272.9953635
272.9885214
272.9768683
272.9763073
272.9895464
272.996432
272.9862039
269.8630562
275.9262646
273.0131791
273.0021848
273.0070703
273.0072446
273.0136604
273.0151092
273.0043533
272.9989372
272.9957021
272.9898211
272.9871151
272.9871967
272.9852362
272.9809848
272.9778547
272.9872047
272.9979809
272.9951815
270.6677978
275.5586648
273.0104794
273.0108659
273.0176183
273.0050652
273.0111514
273.012784
272.9992509
272.9859158
272.9980909
273.0110422
272.9979247
272.9792724
272.9798439
272.987683
272.9850967
272.9862582
272.9942329
272.9959091
271.2410685
274.1032268
273.1027303
273.0263657
273.1929557
273.0294004
273.1849468
273.0461885
273.1140755
273.0008126
273.0475946
273.0276076
273.0144704
272.9705321
272.9638114
272.9734805
272.9704728
272.9728946
272.9793356
272.9885796
272.0522712
268.722799
281.9971217
271.8177411
284.6238081
274.9728984
284.8828959
276.6152359
282.6096264
275.8380287
278.9294178
273.6031676
274.9355084
270.8562937
271.5660203
268.9092404
269.8881136
268.7183398
270.5264119
270.4477221
272.478241
287.0092053
273.2662975
273.0309839
273.03582
273.0209599
273.0262252
273.0281723
273.0081741
273.0033831
273.0264843
273.0279906
272.9918492
272.9641675
272.9699704
272.9835965
272.9875189
272.9917233
272.9959419
272.9433593
264.1195326
287.0884831
273.2526918
273.0080755
273.0183875
273.0258715
273.0284662
273.0157175
273.0027396
273.0041873
273.0117731
273.0063582
272.9865669
272.9728935
272.9713809
272.9773603
272.9830888
272.9856838
272.9858601
272.9332186
263.9432002
287.2344696
273.2658582
273.0004432
273.0094551
273.0278364
273.0283223
273.0149036
273.011462
273.010797
272.9987739
272.9914876
272.9924428
272.9890856
272.9759918
272.9735758
272.9806461
272.9845866
272.9835809
272.9366407
263.6071567
287.4704045
273.2958219
273.009512
273.0096956
273.0184201
273.019992
273.0217086
273.0264639
273.0149318
272.9874729
272.9830663
273.0019485
273.0006511
272.9775646
272.9681279
272.975712
272.9835028
272.986253
272.9494725
263.188994
287.6116758
273.3016422
273.0145174
273.0092485
273.0085963
273.0177632
273.0278603
273.0300196
273.0128341
272.9881992
272.9798065
273.0045276
273.0004531
272.9769112
272.9665213
272.9730174
272.9824376
272.9905767
272.9664324
262.7129337
287.6963281
273.2784167
273.0116348
273.0093134
273.0077054
273.023667
273.0308119
273.0201766
273.0020885
272.9924371
272.7490509
273.0038419
272.990812
272.9746844
272.9701489
272.974827
272.9816326
272.9926603
272.9813208
262.2915256
287.5625866
273.2539934
273.0142678
273.017091
273.0145261
273.0256205
273.0244801
273.008562
272.990292
272.8430348
267.518129
272.940583
272.9789031
272.9723158
272.9797933
272.9812328
272.9805264
272.9900943
272.9878864
261.9783419
287.4258357
273.2493003
273.0239645
273.0286913
273.0167765
273.0164695
273.0159808
273.0058069
272.9859852
272.5955066
258.1195871
272.5398093
272.9666958
272.9729097
272.9920006
272.9895267
272.9783912
272.9835817
272.9900101
261.8241183
286.9048727
273.245391
273.0246206
273.0312601
273.010498
273.0035368
273.0176401
273.0150171
272.996032
272.9949976
271.4280062
272.983136
272.9676168
272.9748522
272.9991665
272.9947696
272.9770826
272.9774225
272.9888919
261.9355596
286.427223
273.2421985
273.0155917
273.0268222
273.006143
272.9990906
273.0282625
273.0275672
273.0000923
272.9977126
272.9816844
272.9920303
272.9673075
272.9730118
272.995136
272.9936906
272.9777773
272.9751717
272.9901989
262.2234562
285.383099
273.2075352
273.0070279
273.0233816
273.0119628
273.0094523
273.0365822
273.0288463
272.999726
272.9903865
272.9994487
272.9928995
272.9706918
272.9658122
272.9825697
272.9875862
272.9813647
272.9772238
272.9874796
262.8401012
284.6180287
273.1735707
273.0070438
273.0217698
273.0241435
273.0306573
273.0361544
273.0150166
272.9930519
272.9901689
272.9973456
272.9946152
272.9740699
272.9607863
272.9699366
272.9814009
272.9852748
272.9811371
272.9847314
263.5502629
283.10761
273.1350808
273.0159247
273.0193135
273.0305814
273.0445443
273.0265679
272.9938819
272.9868682
272.9986384
273.0002415
272.9894032
272.9751063
272.9629894
272.966288
272.9765262
272.9862131
272.9852784
272.9810978
264.597417
282.2036019
273.1244435
273.0232448
273.0133462
273.021673
273.0441704
273.0177559
272.9803791
272.9896215
273.0132643
273.0005632
272.9783867
272.9722615
272.9726151
272.9726062
272.9727326
272.9820586
272.9877936
272.9830451
265.5760571
280.4008054
273.0957182
273.0188781
273.0036115
273.0093008
273.0345456
273.0141482
272.9848732
273.0021172
273.0228033
272.9977434
272.9676255
272.9695859
272.9839688
272.9810611
272.9712069
272.9762812
272.9872351
272.9855661
266.8825624
279.5031347
273.0755614
273.0049991
272.9992685
273.0022616
273.0230294
273.0147976
273.0027875
273.0129534
273.0172282
272.9917451
272.965552
272.9702415
272.9878334
272.9857852
272.9743782
272.9728333
272.9845645
272.9897024
267.872293
277.5222893
273.0402369
272.998912
273.0030179
273.0032163
273.0110948
273.0153509
273.017603
273.0126143
272.997226
272.9868965
272.9804545
272.9786727
272.9820592
272.9853357
272.9814573
272.9762103
272.9822783
272.9896098
269.2571007
276.7811056
273.0262924
273.006319
273.0139468
273.0085942
273.0077059
273.0156402
273.0272766
272.999134
272.9712117
272.9867535
273.008421
272.9920679
272.9731578
272.9815232
272.991426
272.9858238
272.9827086
272.9898348
270.1354274
274.7147043
273.1635257
273.0323217
273.3131673
273.0795183
273.322356
273.1191664
273.2363107
273.0504872
273.0455244
273.0061102
273.0401013
272.9835625
272.9410808
272.9509335
272.963167
272.9835026
272.9723732
272.9930068
271.5263136
268.5601428
284.348481
273.2588622
288.5026074
278.3298525
289.2952217
281.0258466
286.2206073
279.1872857
280.8246108
274.870873
275.3332797
270.1424726
270.6465129
266.3860274
268.4626294
265.5028844
269.8809665
267.9488908
273.1133492
291.1531188
273.4177668
273.0418962
273.0449789
273.0065901
273.0199054
273.0360038
273.0171347
272.9987694
272.9966041
273.0012296
272.9978366
272.9689145
272.9477168
272.9544898
272.9664334
272.98396
272.9938585
272.9535601
259.6461395
291.3838715
273.4028298
273.005234
273.0115927
273.0228503
273.0309086
273.0224718
273.002162
272.9952471
272.9993261
272.9965445
272.9846549
272.9716166
272.964297
272.966507
272.9735927
272.9762681
272.9796534
272.9414435
259.3558222
291.6624396
273.4246399
272.9915769
272.9946968
273.0330247
273.0358674
273.0145186
273.0007671
272.9982993
273.0022932