/*--------------------------------*- C++ -*----------------------------------*\
| =========                 |                                                 |
| \\      /  F ield         | OpenFOAM: The Open Source CFD Toolbox           |
|  \\    /   O peration     | Version:  5.x                                   |
|   \\  /    A nd           | Web:      www.OpenFOAM.org                      |
|    \\/     M anipulation  |                                                 |
\*---------------------------------------------------------------------------*/
FoamFile
{
    version     2.0;
    format      ascii;
    class       volVectorField;
    location    "6";
    object      U;
}
// * * * * * * * * * * * * * * * * * * * * * * * * * * * * * * * * * * * * * //

dimensions      [0 1 -1 0 0 0 0];

internalField   nonuniform List<vector> 
30538
(
(-0.01377979245 -0.0003320794943 -0.001514842266)
(-0.03027962993 -0.005451064447 0.002829142121)
(-0.03853050134 0.009500020133 0.001827838007)
(0.01869411297 0.009784004481 0.00649280915)
(0.02019390312 0.002445563213 -0.001345644505)
(0.03485925885 0.0003008192141 0.001728846936)
(0.0306349555 0.003230179863 -0.001190847729)
(0.05303770751 0.001118327431 0.0008073735643)
(0.01991119331 0.001588648334 -0.0009138686346)
(0.0152083781 0.003943557701 0.005636424738)
(0.007024117947 0.006112667266 0.002185958799)
(0.03660274125 -0.00274670914 -0.0001169682248)
(0.007840875509 -0.008408198042 -0.006241177795)
(-0.009164729761 -0.004019660401 0.002864050381)
(-0.02674230281 0.004151581279 0.002400329004)
(-0.003608975588 0.002784907241 0.002442032805)
(-0.006225821818 -0.001524068992 -0.006206871043)
(-0.01562708923 -0.004022770232 -0.00216935636)
(-0.0436433658 -0.001087890743 -0.003239990229)
(-0.05721268413 0.0005577285063 0.002908908572)
(-0.01782836379 -0.001967778631 -0.002744595702)
(-0.02335100074 -0.01278862842 0.001902777526)
(-0.02785723706 0.02139234257 0.00179841922)
(0.01376248027 0.02418427689 0.007332707009)
(0.01347672591 0.009420155131 0.00135445621)
(0.03541385707 0.005659500807 0.004195092838)
(0.03119419041 0.01192923136 0.0004249544237)
(0.05192003788 0.006526160195 0.0008665760296)
(0.02189150825 0.004843737941 -0.00267161035)
(0.01845546873 0.0102479331 0.003432400273)
(0.00226592991 0.01465351442 0.0017343837)
(0.02635179675 -0.00650027397 0.002070170792)
(0.006915193017 -0.02153245724 -0.004921565552)
(-0.0003038751416 -0.01079806028 0.0009844431446)
(-0.02188410151 0.008093520073 -0.0002576433329)
(-0.007691816598 0.006338969612 0.002731706369)
(-0.01095395078 -0.004463671676 -0.004269319495)
(-0.01532590199 -0.01120780503 -0.001897286516)
(-0.04040960622 -0.005117407471 -0.005524823819)
(-0.05691796783 0.0002894783039 0.0008464972305)
(-0.02401981919 -0.0009811176227 -0.004407045785)
(-0.0138951217 -0.01345299657 0.0007482174656)
(-0.01253474191 0.02621053202 0.0009684156395)
(0.01028151136 0.02808367064 0.007097402358)
(0.007115580132 0.02003236848 0.003110553481)
(0.03663215629 0.01436698296 0.006227226495)
(0.03123504542 0.02426961582 0.001938412295)
(0.0480793216 0.01328387541 0.001082146081)
(0.02249126691 0.008661569047 -0.004871168351)
(0.02222465554 0.008780463263 0.0003303724522)
(-0.00482491823 0.01481138741 0.0004984018673)
(0.01113544259 -0.01151927046 0.005202741169)
(0.004765832404 -0.02827496454 -0.002880907226)
(0.01171012366 -0.01893015497 -0.001262025748)
(-0.01460286708 0.004282962226 -0.003777686872)
(-0.0125541193 0.003983964229 0.00304442627)
(-0.01851724585 -0.006398604922 -0.001282222802)
(-0.01612068023 -0.01676047561 -0.001256412672)
(-0.03543674329 -0.01022745574 -0.008262874975)
(-0.05414115507 -0.002952956405 -0.002161681304)
(-0.02776424594 0.003903864551 -0.00528089922)
(-0.004407329059 -0.002775274565 -0.0004273594646)
(0.00155812671 0.02707939237 -0.0006617864603)
(0.00935610867 0.02700444035 0.005712760277)
(0.003895311068 0.02956855194 0.003380181101)
(0.0383805441 0.02400142439 0.007154757798)
(0.03039932828 0.03398983199 0.002784618262)
(0.04095473158 0.02047555163 0.001872068843)
(0.01864006833 0.01306307545 -0.005460424269)
(0.02290847166 0.004449904836 -0.001088168608)
(-0.01208005402 0.008900792155 -0.0001069454623)
(-0.004015756426 -0.01240080986 0.00860418804)
(0.001680679665 -0.02593726582 0.0001750612878)
(0.02264463051 -0.02510943785 -0.002296539684)
(-0.005750728505 -0.006036987859 -0.006966575823)
(-0.01523367593 -0.001700642034 0.003071064631)
(-0.02565268293 -0.004798692727 0.001067009439)
(-0.01802123514 -0.0164096465 -0.0001156613346)
(-0.03045463968 -0.01349402699 -0.0103022209)
(-0.04809375376 -0.007466915735 -0.004167142135)
(-0.0228823399 0.01277266606 -0.005014313356)
(0.002240349054 0.0134871381 -0.000405568817)
(0.008641362506 0.02698894955 -0.002908232066)
(0.01193361411 0.02181375057 0.003194030138)
(0.005120166704 0.03866281673 0.002188408753)
(0.03972648016 0.03050519203 0.006200807194)
(0.02873063074 0.03866189917 0.001224455978)
(0.03337469783 0.02205967402 0.001224682969)
(0.01111504017 0.01670208734 -0.005289428563)
(0.0193840695 -0.002143928977 -0.001213633696)
(-0.01676421468 -0.001229225988 -0.002474165336)
(-0.01342520485 -0.01171714064 0.009346223703)
(-0.004225501951 -0.01678542111 0.002172540766)
(0.02573821753 -0.02926199401 -0.00171181864)
(0.001850521145 -0.01954178145 -0.008915803785)
(-0.01163079442 -0.01125714388 0.0009981622387)
(-0.02899688781 -0.001064476403 0.0006108763343)
(-0.02226741884 -0.01164734268 4.508782179e-07)
(-0.02888885088 -0.0125314309 -0.009977148006)
(-0.03983991468 -0.01133407686 -0.004448855696)
(-0.008843188627 0.01667244795 -0.003751326792)
(0.005578399619 0.02000697159 0.0004214085966)
(0.007565201175 0.02500472286 -0.003682712445)
(0.01747137443 0.01579438372 0.001666866972)
(0.01008373786 0.04187294046 0.0006235768355)
(0.03836070241 0.03207464486 0.004999233907)
(0.02442150674 0.03645688519 -0.0009098225072)
(0.02554159779 0.01825574785 0.001014961803)
(0.001490570168 0.01824662055 -0.003001631729)
(0.01037320922 -0.005484352526 0.001297147101)
(-0.01888317787 -0.005890300402 -0.003698844684)
(-0.0150038628 -0.007175327614 0.007999129539)
(-0.0107047361 -0.003735015578 0.003094930652)
(0.02066753793 -0.02714952968 0.0009013353467)
(0.00694393264 -0.02840485725 -0.009159134517)
(-0.002157020873 -0.02113315528 -0.002153001046)
(-0.02593052163 -0.001310423431 -0.003625959218)
(-0.02615560857 -0.007906145447 -0.0006054992133)
(-0.03002345219 -0.009023822785 -0.008048035943)
(-0.03177365364 -0.01270222766 -0.002298237129)
(0.00336777828 0.01479898273 -0.001565573909)
(0.008148254414 0.01097815548 0.002542806995)
(0.005834686812 0.02477528205 -0.002959183345)
(0.02368860228 0.01248346866 0.001325835945)
(0.0166156432 0.04211893672 -0.000501321317)
(0.03590608524 0.02887732834 0.003270702203)
(0.01897251626 0.032380724 -0.002696962996)
(0.02060510645 0.01083988915 0.0005049165863)
(-0.005679650207 0.01669797139 -0.001302271893)
(0.002456073202 -0.006294910608 0.002945347553)
(-0.01797912335 -0.00395956888 -0.006753435834)
(-0.01192164102 -0.002666934579 0.004187544058)
(-0.01832641705 0.006850503796 0.001711667103)
(0.008265271431 -0.02149135597 0.003723287156)
(0.006113659329 -0.02896729293 -0.007202391901)
(0.007499663027 -0.02894939133 -0.005707089201)
(-0.01957194752 -0.007667030203 -0.00875422072)
(-0.02774486679 -0.009668621934 -0.001872258789)
(-0.03212634454 -0.007087260645 -0.004060348511)
(-0.02499763309 -0.01224476529 0.0009985933568)
(0.009620255037 0.01010283912 0.0001898291312)
(0.0125769911 -0.002610738637 0.005322368512)
(0.00887705796 0.02469375864 -0.001664127835)
(0.02957681048 0.01162144269 0.001818038124)
(0.02170004253 0.0389654049 -0.001073749261)
(0.03147702264 0.02210669951 0.002601872262)
(0.01168300737 0.0265939336 -0.003041282661)
(0.01455374403 0.002347257993 0.00195721549)
(-0.01065862413 0.01438519516 0.0006630864032)
(-0.004109197295 -0.004437059119 0.004822271798)
(-0.01632189856 0.003723306896 -0.007874117056)
(-0.007431065669 -0.001801720902 0.000442427938)
(-0.02397082444 0.01059270541 -0.0003840898419)
(-0.00469456847 -0.01492122947 0.006144000509)
(0.001659691626 -0.02119018336 -0.004527682944)
(0.01290387976 -0.03134887276 -0.007521901153)
(-0.01227393956 -0.01544618288 -0.01283361427)
(-0.02573215498 -0.01535905021 -0.002134923362)
(-0.03169092397 -0.006640280933 0.0002090513887)
(-0.01857161796 -0.01066549211 0.0050067356)
(0.008836682962 0.009378632664 0.0004808531204)
(0.0183407747 -0.01009212557 0.006115709304)
(0.01610526477 0.02702969049 -0.001205304189)
(0.03362453659 0.01162879996 0.001982660382)
(0.02409509576 0.03473183352 -0.001271735962)
(0.02715776193 0.01276150483 0.001512960495)
(0.005006012345 0.02187367321 -0.001764885629)
(0.0120896428 -0.001940020028 0.003108175238)
(-0.01052395842 0.01582305349 0.0007404617658)
(-0.004998766195 0.0001387035973 0.004110618543)
(-0.01612771496 0.01193971624 -0.008135290104)
(-0.007164916408 -0.005413253448 -0.002200368095)
(-0.02755582487 0.006807123212 -0.002997718267)
(-0.01422498711 -0.01088443593 0.006380727368)
(-0.005522713989 -0.00881211793 -0.001876346989)
(0.01160999715 -0.02762898065 -0.007362869689)
(-0.008287526448 -0.01879882315 -0.01367514552)
(-0.02148912454 -0.02102563809 -0.002314756431)
(-0.0286476091 -0.00566754589 0.00338969576)
(-0.01318133707 -0.008863556473 0.006985714561)
(0.00923770899 0.01393360082 -0.0005996765664)
(0.02497837604 -0.00841559956 0.004679115226)
(0.02438915235 0.02628522495 -0.001759597622)
(0.03486872367 0.006109055709 0.002547953525)
(0.02257895223 0.02462465798 -0.00105800949)
(0.0223952229 -0.002904525974 0.001735794993)
(0.001274643364 0.01444728854 -0.0005737184429)
(0.01041772606 -0.004250392081 0.003942416302)
(-0.009235628732 0.01715640616 -0.001045822068)
(-0.006775724651 0.0025219268 0.002949241967)
(-0.02026711456 0.01367067072 -0.006685211214)
(-0.01113777995 -0.01264186319 -0.002526550983)
(-0.02781484897 -0.001831832369 -0.005222720364)
(-0.01575230206 -0.01107960239 0.004631833292)
(-0.0101710838 0.0009640013167 -0.001415580956)
(0.005870181022 -0.02079140904 -0.005133148904)
(-0.007579512878 -0.01745599279 -0.01262706834)
(-0.01645055287 -0.02350820656 -0.00215657224)
(-0.02296112265 -0.004174643108 0.002764054547)
(-0.008680611743 -0.00637882956 0.007080709946)
(0.01286517981 0.02075620782 -0.001637872713)
(0.02708438549 -0.003668826632 0.002771651481)
(0.02652986957 0.02267595706 -0.002013239004)
(0.03233647408 -0.00426187342 0.003152890221)
(0.01780716277 0.01317321569 0.0001735823725)
(0.02000452554 -0.01917760447 0.00174157858)
(0.004000471502 0.008521938861 0.0001391035007)
(0.01416307552 -0.005556362075 0.001936778493)
(-0.005809335711 0.01905806248 -0.003647871883)
(-0.007391751173 0.001338600628 0.0005418895957)
(-0.02684704172 0.0135416466 -0.004775160101)
(-0.01814161912 -0.0171671589 -0.001783496376)
(-0.02644467602 -0.005471381386 -0.006159043584)
(-0.01229553507 -0.01309426355 0.0009813258455)
(-0.01236188436 0.005761053465 -0.00159635167)
(-0.001452297311 -0.01507114926 -0.002588894721)
(-0.01016160714 -0.01268934895 -0.009226947207)
(-0.0120867997 -0.02248302474 -0.003432273675)
(-0.0164116876 -0.00148101303 -0.0005578672448)
(-0.00610522628 -0.00432294093 0.003889929594)
(0.02145552766 0.02280237974 -0.002031760616)
(0.02641818037 -0.005519840283 0.001793932651)
(0.02420586574 0.01491552905 -0.001158180692)
(0.02805906475 -0.01578791425 0.004929834149)
(0.01214789974 0.002729742234 0.001764238273)
(0.01913666714 -0.03059037003 0.003325481108)
(0.01079844037 0.001139710086 -0.0004653775799)
(0.01802013439 -0.01231835618 0.0001467153443)
(-0.00445575262 0.01143021023 -0.005709754293)
(-0.01060242404 -0.009591999488 -0.0003106393279)
(-0.03333166693 0.006643944046 -0.003284980491)
(-0.02460193503 -0.01964763709 0.0001513079621)
(-0.02490845244 -0.005728161894 -0.006549354333)
(-0.007889861448 -0.01676343712 -0.001880618586)
(-0.01154858919 0.002575906153 -0.003486951686)
(-0.007223114604 -0.01510099645 -4.026945858e-05)
(-0.01281506293 -0.009803310161 -0.006521874589)
(-0.008500763333 -0.02053953913 -0.004362057149)
(-0.01000513113 0.0007264819177 -0.006336752484)
(-0.004909898581 -0.003906649743 0.0002623668518)
(0.02518856536 0.01933646469 -0.00188475227)
(0.02160909434 -0.013655307 0.001598219219)
(0.01956870693 0.009016266735 0.0003246761539)
(0.02360456033 -0.02200802477 0.005271490868)
(0.007458816869 0.001906205726 0.003045919258)
(0.01890144988 -0.03012441375 0.004004845474)
(0.01680468894 0.0001178016693 -0.0001442565385)
(0.02159586253 -0.02009135036 -0.001606858782)
(-0.003965794233 -0.0006078026765 -0.005364703153)
(-0.01070325227 -0.02272671013 -0.001523093649)
(-0.03394404079 0.002077739837 -0.002757488728)
(-0.02695026961 -0.0169101138 0.0005450517955)
(-0.024370256 0.0008031210579 -0.004920952307)
(-0.006511680082 -0.01639577855 -0.003681023619)
(-0.01117793096 -0.001497634614 -0.004227521465)
(-0.01018155111 -0.01804718013 0.0004807801425)
(-0.01407631387 -0.008187997259 -0.0029659653)
(-0.004610285047 -0.0186177641 -0.005034808892)
(-0.004555315637 0.001988883202 -0.009905125315)
(-0.004131831856 -0.004303894586 -0.003192864963)
(0.02555648144 0.01401952917 -0.002010117882)
(0.01920437195 -0.02305438008 0.001807475471)
(0.01857224085 0.00629034699 0.0009730677603)
(0.02289202602 -0.02630005237 0.004841558577)
(0.006512230249 0.004180522023 0.002685710656)
(0.01788471075 -0.02697821967 0.005025743949)
(0.01779861508 -0.001121823051 0.0006146863178)
(0.0176839757 -0.03122169899 -0.0007065371699)
(-0.006388781192 -0.01585207077 -0.003847648543)
(-0.008631359236 -0.03658674114 -0.001128402235)
(-0.02922965138 -0.005787819626 -0.004413604438)
(-0.025573495 -0.01752273497 0.0004213081671)
(-0.02454172824 0.004751479047 -0.003715472325)
(-0.00957437447 -0.01565283752 -0.003160830272)
(-0.01272015657 -0.004837009595 -0.005710867836)
(-0.01187709409 -0.02135645286 0.0007110285292)
(-0.01330689731 -0.007033184751 -0.001069651696)
(-0.001269238455 -0.01716674241 -0.003064544322)
(0.000215095209 0.002009014296 -0.01105710358)
(-0.003542454986 -0.005811106248 -0.003893765007)
(0.01889285215 0.01179344902 -0.002377657121)
(0.01620780568 -0.02669581775 0.001003091804)
(0.01749780286 0.00702943772 0.000539098326)
(0.02196519587 -0.02922130517 0.0027653566)
(0.007067913199 0.005227794525 0.001602339929)
(0.01515826103 -0.02576361576 0.00429336835)
(0.01373079608 -0.002487885847 0.002284849907)
(0.01137632276 -0.03878155487 -0.000279838082)
(-0.007822399554 -0.01931429699 -0.00188479099)
(-0.00352913869 -0.04079063123 -0.001926059502)
(-0.02049329277 -0.01061432549 -0.005529289922)
(-0.01957194617 -0.02089867748 -0.001128227695)
(-0.02304911719 0.00573830112 -0.001830277182)
(-0.01333427754 -0.01338855747 -0.002737256151)
(-0.01520455289 -0.002818369295 -0.005127543419)
(-0.01168145043 -0.01982641835 -0.0005549496584)
(-0.01116545746 -0.003641951544 0.001190561056)
(0.001828637039 -0.0139038 -0.0006216426018)
(0.003585782588 0.002447166268 -0.007689624158)
(-0.001735902591 -0.007248038088 -0.003612911375)
(0.01516622828 0.014219453 -0.002833921998)
(0.01585922566 -0.02627356327 0.0003039426267)
(0.01699033413 0.006590025078 -0.000197040929)
(0.02145311024 -0.03529505836 0.002228939259)
(0.009041872226 -0.002262374791 0.0004372212354)
(0.01245202242 -0.03402742215 0.004061222429)
(0.008536313663 -0.009750056794 0.002426777624)
(0.005978443891 -0.04634106981 0.0004561555986)
(-0.007884205922 -0.01779644418 -0.002136572601)
(-0.002427220499 -0.04106338255 -0.001412188523)
(-0.01520380487 -0.01693424871 -0.005661888469)
(-0.01408793795 -0.03045306171 -0.001403399091)
(-0.01923104227 -0.001107979355 -0.002430255407)
(-0.01566300962 -0.01464474563 -0.002017656461)
(-0.01725308552 0.001197477082 -0.00504109542)
(-0.01244266164 -0.01532857528 -0.0006245886532)
(-0.009158060757 0.001727724166 0.001252895166)
(0.003070229924 -0.009999708752 0.001842363457)
(0.005036436147 0.004252714192 -0.005056829927)
(-0.0004665411374 -0.008387563415 -0.002017650355)
(0.01056956614 0.01764366846 -0.002713108374)
(0.0108249264 -0.02315486234 -0.0007821443762)
(0.01134204894 0.005499449613 0.00041272878)
(0.01556272799 -0.03804831676 0.002298559535)
(0.008051677579 -0.01017838805 0.0005466339416)
(0.009892469963 -0.04172010665 0.002972602525)
(0.004985779446 -0.0150317443 0.002243382229)
(0.005854844748 -0.04840416325 -0.00118979361)
(-0.00416842954 -0.0126469739 -0.003331680444)
(-0.002857733122 -0.0372198499 -0.002035546825)
(-0.01303593183 -0.01865340986 -0.002652149513)
(-0.008435480382 -0.0367982718 -0.001327832481)
(-0.01187668555 -0.007862295332 -0.002832167186)
(-0.0117507569 -0.01721409089 -0.002860513787)
(-0.01568553971 0.004941275929 -0.003348799201)
(-0.01128456173 -0.009996136427 -0.001105852352)
(-0.007481505903 0.00746674395 0.001279682396)
(0.003629635516 -0.006026259948 0.001299263271)
(0.004852670778 0.005830846327 -0.003265888694)
(0.000817521462 -0.008611563194 -0.001881660256)
(0.01149817066 0.01967452534 -0.002450232057)
(0.007283584157 -0.02405183088 -0.0005317048469)
(0.006681468048 0.006023032026 0.002390887585)
(0.01028958895 -0.04070516285 0.004244609584)
(0.006544901411 -0.01239227697 0.001398805918)
(0.009026861913 -0.04822034502 0.003513830697)
(0.00374869488 -0.01798887208 0.001457492757)
(0.007763853957 -0.05059715511 -0.001446834512)
(-4.334652251e-05 -0.01430223084 -0.005012223569)
(-0.006618389021 -0.03935978779 -0.0009830621809)
(-0.01493367222 -0.01875123408 0.0006003543261)
(-0.006500460459 -0.03905852125 0.001104408116)
(-0.005396978605 -0.01295805135 -0.003900643961)
(-0.006663292327 -0.02156996078 -0.002970506596)
(-0.01216915016 0.004020555326 -0.002914509597)
(-0.0106438561 -0.007822368645 -0.0002517528936)
(-0.006424509706 0.01075634312 -0.0003983620444)
(0.001909422372 -0.003858493149 0.0003048997422)
(0.003364373113 0.006757733391 -0.003814340276)
(0.00111681891 -0.008222151902 -0.001359393645)
(0.007647069021 0.0171253998 -0.001793792473)
(0.001062221988 -0.02634408449 -0.0006387761207)
(-0.0003788029133 0.00769115636 0.003528351155)
(0.0023741049 -0.03559466295 0.004373101145)
(0.002744959564 -0.006093632461 0.002046794179)
(0.005927986558 -0.04090063747 0.002317860249)
(0.003317697635 -0.01389008223 0.00101811323)
(0.008624700125 -0.04322238831 -0.002348919533)
(0.00385786038 -0.01873755947 -0.004625880507)
(-0.005894742632 -0.04316660766 -0.001209177847)
(-0.01280193325 -0.01552988131 0.003137707805)
(-0.004396759834 -0.03239639676 0.002014840542)
(0.0004237250932 -0.009841353211 -0.002845458546)
(0.0001743977447 -0.02282560906 -0.003490987254)
(-0.005996920567 0.0009986802892 -0.001572259039)
(-0.006553296367 -0.009161667326 -0.0005280043493)
(-0.004604946459 0.01158052224 -0.0004538676148)
(0.0008679230308 -0.002866902193 -0.001430323003)
(0.001956151208 0.008076154029 -0.00295711655)
(0.001555877597 -0.007197387207 -0.001757513054)
(0.005150578535 0.01200625986 -0.0007688139961)
(0.0009009423231 -0.03006532877 0.000308078921)
(0.0004206239297 0.009748736994 0.001854324727)
(0.0008037672853 -0.02932853029 0.001971286312)
(0.002906400053 0.005855028529 0.001052458638)
(0.003643845867 -0.03713567126 0.000756648397)
(0.001970236628 -0.007688861366 5.080147538e-05)
(0.004297516001 -0.04511882771 -0.001222525136)
(-0.0001938944151 -0.02657637543 -0.002241039656)
(-0.004546046236 -0.05092459799 0.0005818251845)
(-0.007368649959 -0.01222910338 0.001785669464)
(-0.002459248735 -0.02201999072 0.001265876079)
(0.001449154324 -0.002313217506 -0.001669303124)
(0.001119697551 -0.0242601286 -0.001380186921)
(-0.002423332981 -0.003780005523 -0.001071062207)
(-0.003236214523 -0.01204953591 0.000323810779)
(-0.00202514016 0.009961546101 -0.0008849951253)
(-0.0007503345035 -0.003073738024 -0.0007664611807)
(0.0002083601267 0.009267633123 -0.002066444802)
(0.0001206350466 -0.006693977805 -0.0005671954182)
(-0.01152337574 -0.0026998865 -0.008749900753)
(-0.02610251481 -0.007233481224 0.002145257509)
(-0.0335379019 0.009415793791 0.002352395419)
(0.01450965053 0.01132856226 0.01908786436)
(0.01383885102 0.007549163835 -0.004533382693)
(0.03506098633 0.004969669854 0.003889536863)
(0.02933804022 0.006280420069 -0.003223275193)
(0.05343909679 0.00122299919 -0.001910826455)
(0.02639803461 -0.001760889256 -0.004775315696)
(0.01950565243 -0.0002650566621 0.006031436893)
(-0.0007114495078 0.005197605472 0.008447813219)
(0.02545668579 0.001402352976 -0.005041648959)
(0.01177937622 -0.005925427994 -0.01216473754)
(0.002423875522 -0.00761839967 -0.004762481704)
(-0.02728414652 -0.0009165331598 0.00835878021)
(-0.01520954357 0.003288522141 -0.000133971539)
(-0.01235966221 0.002131540944 -0.006582935319)
(-0.01185798735 -0.00353832424 -0.01339290446)
(-0.03666712203 -0.005476823987 -0.004350542527)
(-0.05711008119 -0.003391936902 -0.003139869702)
(-0.01853011044 -0.007513283374 -0.01041918156)
(-0.01762670642 -0.01678059381 0.00230429053)
(-0.02047520783 0.01971609061 0.0001449401187)
(0.01318921656 0.02526170845 0.01719542923)
(0.009360538377 0.01782204327 -0.0001508077087)
(0.03417179735 0.01416990888 0.009083908724)
(0.02668600674 0.01783396363 -8.650660655e-05)
(0.04779499586 0.007019285751 -0.001662763508)
(0.02533854966 -0.002710010613 -0.008284113821)
(0.02445605082 0.0001271541141 -0.0001879527392)
(0.0004196844368 0.01136853014 0.00509306049)
(0.01758621256 0.003586604089 -0.001522835737)
(0.005390304677 -0.01520799639 -0.00816137581)
(0.005956638049 -0.01867728817 -0.00829742832)
(-0.01957460184 -0.003680039223 0.001393302779)
(-0.013086001 0.007405912839 -0.001909033327)
(-0.01719367127 0.004852294829 -0.003368769845)
(-0.01724277235 -0.009536016399 -0.01249222447)
(-0.03652048424 -0.01472181632 -0.007603995005)
(-0.05093168608 -0.009384275284 -0.006549597944)
(-0.02857044272 -0.005814284916 -0.01182388226)
(-0.007083142963 -0.01789678678 0.004416517407)
(-0.003920415285 0.02149825206 -0.003418538369)
(0.01313425228 0.02500678514 0.01372423028)
(0.00605726821 0.02384112059 0.002515981887)
(0.03507788159 0.01998560498 0.01387784176)
(0.02429770059 0.02873574497 0.003237630064)
(0.03897552307 0.01517526478 0.0003408661172)
(0.02149728007 0.003334251539 -0.01093856506)
(0.02950706413 0.0001743286828 -0.006853065171)
(0.001662958555 0.01128969446 0.0005507392856)
(0.006736561498 0.0008708447114 0.004629619282)
(-0.00396024642 -0.01860932398 -0.001416183096)
(0.01053533118 -0.0251706788 -0.01150116288)
(-0.008880924813 -0.00846932555 -0.007492159901)
(-0.009207235436 0.004591350856 -0.004047139714)
(-0.02433533031 0.003707909446 0.001298550816)
(-0.02574766672 -0.01340490862 -0.009886636539)
(-0.03648707262 -0.01930667878 -0.0107630576)
(-0.04036678365 -0.01249562439 -0.01070811676)
(-0.03510645597 0.002767974337 -0.01117248358)
(0.001416971595 -0.004973322704 0.006649192273)
(0.009847373319 0.01966588386 -0.006914235853)
(0.01475444583 0.01960643391 0.009130905725)
(0.005914295253 0.02777969638 0.00266103144)
(0.03759582092 0.02395673028 0.01507931783)
(0.02328626652 0.0326161188 0.003770250782)
(0.02991733723 0.02075765746 0.0006485197969)
(0.01469005001 0.0122653707 -0.01256307747)
(0.03016842016 0.001507189296 -0.01242747006)
(0.000860692492 0.003241238045 -0.005235390318)
(-0.003475350637 -0.004516273862 0.00915637493)
(-0.01298886147 -0.01632457266 0.005255417415)
(0.01309850575 -0.02594323134 -0.0133158582)
(0.001429333806 -0.01579611904 -0.01516417565)
(-0.004492836377 -0.005569739625 -0.006971169817)
(-0.0299375397 -0.001229749106 0.005123537756)
(-0.03357519862 -0.01402757294 -0.006850999195)
(-0.03575634395 -0.01669435768 -0.01193282404)
(-0.02885769751 -0.01179782018 -0.01345325023)
(-0.02984283953 0.01571820234 -0.01040550812)
(0.004725534914 0.01507246363 0.007202880305)
(0.01351479396 0.02119612738 -0.01096287044)
(0.01874376788 0.01413681624 0.004723675789)
(0.009231963935 0.03338275058 0.000522828088)
(0.03845229798 0.0264036985 0.01404915467)
(0.0220371355 0.03162633964 0.0002383198445)
(0.02464998865 0.02043514218 -0.000408722809)
(0.00784303123 0.021361157 -0.01092879955)
(0.02324509816 0.002379473838 -0.01035812307)
(-0.00262836103 -0.008065804548 -0.007717625384)
(-0.007030287812 -0.01288434849 0.01046368174)
(-0.01910105378 -0.01124875417 0.009486239233)
(0.01090118034 -0.02318162009 -0.0105546871)
(0.005499385036 -0.02369565311 -0.01850473174)
(0.001086233108 -0.02117257324 -0.01192051327)
(-0.03032224898 -0.009987410565 0.00211872511)
(-0.03672952318 -0.01261023543 -0.006208483378)
(-0.03474078373 -0.008152438237 -0.01056975672)
(-0.02068843041 -0.007766456767 -0.01297863765)
(-0.01298332481 0.02329233896 -0.009766408668)
(0.005348922526 0.02559405026 0.004856449125)
(0.009307560978 0.02486554481 -0.01161347444)
(0.02321521786 0.01225566344 0.002886563139)
(0.01466169555 0.03672420603 -0.001935236105)
(0.03631673001 0.02648521662 0.01043406528)
(0.01907345896 0.02900834065 -0.005806947272)
(0.02271114391 0.01687183235 -0.004858653672)
(0.001878945272 0.02582547153 -0.009768833207)
(0.009512288396 0.002417394236 -0.007137176596)
(-0.00993921732 -0.0140258779 -0.01218908568)
(-0.00571078312 -0.0170147078 0.003658677725)
(-0.02028891112 -0.004642261772 0.007270190144)
(0.004284066169 -0.01686190784 -0.00700637466)
(0.002848513399 -0.02516468188 -0.01654560497)
(0.00519261034 -0.03389756468 -0.01837554865)
(-0.02386038835 -0.0191273703 -0.006795725827)
(-0.03229379026 -0.01150971488 -0.009440129103)
(-0.03213470502 0.00225324284 -0.00735318244)
(-0.01809105908 -0.002360767248 -0.009782858298)
(0.005059079745 0.02236689599 -0.008163946603)
(0.005993928107 0.02035195235 0.00514733438)
(0.004279387257 0.02856149481 -0.009279975093)
(0.02697357988 0.01284736344 0.005272524747)
(0.01934763885 0.03887645571 -0.003674346209)
(0.03297633705 0.02430694036 0.007703852211)
(0.01525063298 0.02832870961 -0.01058459498)
(0.02245197178 0.01262079354 -0.005934138739)
(-0.002417713868 0.02369476266 -0.005631774506)
(-0.004786246188 0.0004034109911 -0.0004219528849)
(-0.01635980649 -0.01186242158 -0.01145626729)
(-0.0004171932142 -0.01704795992 -0.003856231967)
(-0.0190191168 0.0002424781163 0.002841257261)
(-0.003626275638 -0.01158552648 -0.00150927645)
(-0.006538795392 -0.02017749661 -0.01041659589)
(0.005346193447 -0.03915519516 -0.02252933715)
(-0.01444277143 -0.02516083064 -0.01778300399)
(-0.02158209011 -0.0125804559 -0.01372685379)
(-0.02807718978 0.008619621342 -0.003051182608)
(-0.02109060631 0.001623639105 -0.004170630333)
(0.0174608245 0.01403622672 -0.00521026659)
(0.009866080781 0.00424353644 0.008944788982)
(0.004227525144 0.0279837973 -0.005400677125)
(0.03036917202 0.01296121253 0.007657702136)
(0.02283619902 0.03746038409 -0.004648921667)
(0.0288469437 0.01873473393 0.00370407328)
(0.01080237514 0.02831214949 -0.01188958493)
(0.01951428286 0.007259733617 -0.005414293624)
(-0.006800058424 0.01830081352 -0.004346977449)
(-0.01550715215 -0.002227833581 -0.0002464406711)
(-0.02225350795 0.001127852746 -0.01922799577)
(0.002769081849 -0.01396548761 -0.0151314002)
(-0.01641488945 0.001653265188 -0.005581441572)
(-0.01018281898 -0.009908713773 0.0008148673043)
(-0.0166277064 -0.01107677036 -0.003613717248)
(0.001663419688 -0.03447918415 -0.02406868638)
(-0.005012183507 -0.02476525004 -0.02467131866)
(-0.008340180623 -0.01617430119 -0.01680331992)
(-0.02189259025 0.007570630134 0.002544665562)
(-0.02578284576 0.0007245791831 0.001377194378)
(0.01811490197 0.007887843464 -0.004036966505)
(0.01588923393 -0.01129034208 0.01280027185)
(0.01059542246 0.0268054715 -0.005081959374)
(0.03352857888 0.01307590144 0.008359830059)
(0.02352121524 0.03470521948 -0.006808100815)
(0.02649740005 0.01107913995 0.0008042742048)
(0.007114604027 0.02649555275 -0.008778081957)
(0.01547333221 0.001807374248 0.0004646961114)
(-0.009175598974 0.01257419336 -0.001525383026)
(-0.01685239184 -0.003452985106 1.259529682e-06)
(-0.02464648111 0.01422446114 -0.01427882856)
(-0.000118345458 -0.01108762494 -0.01860289816)
(-0.01610781991 -0.0024062778 -0.009803722397)
(-0.01266045622 -0.0137812301 0.00067822539)
(-0.02389612531 -0.002906807035 0.0004498865514)
(-0.004321211817 -0.023116931 -0.02127431329)
(-0.001465179869 -0.01836627509 -0.02572645717)
(0.001369529212 -0.02106576283 -0.01691601642)
(-0.0159376567 -0.0007453292521 0.006434272211)
(-0.02736494138 -0.00490812133 0.005560507054)
(0.0150912738 0.00991313279 -0.004619210767)
(0.02323203649 -0.01477340905 0.0117622329)
(0.02155059749 0.02472865008 -0.006778920783)
(0.03579059163 0.008370795802 0.006630161275)
(0.02153351284 0.02733074005 -0.007198421074)
(0.02302983246 -0.002509333242 -0.001430730185)
(0.00421709612 0.01802236348 -0.004723196608)
(0.009794932968 -0.006487549481 0.002281874743)
(-0.01055733613 0.008800585252 -0.006056911652)
(-0.01429680139 -0.004294960053 -0.006353341767)
(-0.02765079482 0.02009137067 -0.01718448765)
(-0.009050306278 -0.01187721969 -0.02009750596)
(-0.01825953805 -0.007882880817 -0.01455428921)
(-0.01059144028 -0.02139712987 -0.005348486307)
(-0.02322908914 0.001477478097 -0.0009677868786)
(-0.009261842693 -0.01179887929 -0.0180195544)
(-0.003567771638 -0.009001478448 -0.02132366151)
(0.004184915642 -0.02565411056 -0.01614032864)
(-0.01031063351 -0.01166493769 0.00673132487)
(-0.02215156141 -0.01227229205 0.00565533281)
(0.01469628753 0.01805827416 -0.006641610847)
(0.02639546424 -0.00917552227 0.008516100487)
(0.02707079361 0.02380776219 -0.008905018219)
(0.03523387345 0.0003200051401 0.00668958488)
(0.01593620795 0.01851909919 -0.00586691911)
(0.01993759662 -0.01619698759 0.0008491178362)
(0.004249261453 0.008703717222 -0.002407870033)
(0.009096885179 -0.0127838086 0.0007653010694)
(-0.007689397068 0.01017226893 -0.01102633264)
(-0.00884210648 -0.004873659111 -0.01028889933)
(-0.0299865501 0.02002694892 -0.0124995203)
(-0.0199350643 -0.0120997439 -0.01475353792)
(-0.02277054084 -0.008032171165 -0.01447767661)
(-0.006125491971 -0.02554076715 -0.01187008496)
(-0.01712909455 0.001790906073 -0.006056357764)
(-0.0117473146 -0.005472139943 -0.01391864916)
(-0.01130877923 -0.001112865419 -0.01532016681)