/*--------------------------------*- C++ -*----------------------------------*\
| =========                 |                                                 |
| \\      /  F ield         | OpenFOAM: The Open Source CFD Toolbox           |
|  \\    /   O peration     | Version:  5.x                                   |
|   \\  /    A nd           | Web:      www.OpenFOAM.org                      |
|    \\/     M anipulation  |                                                 |
\*---------------------------------------------------------------------------*/
FoamFile
{
    version     2.0;
    format      ascii;
    class       surfaceScalarField;
    location    "9.6";
    object      phi;
}
// * * * * * * * * * * * * * * * * * * * * * * * * * * * * * * * * * * * * * //

dimensions      [1 0 -1 0 0 0 0];

internalField   nonuniform List<scalar> 
91025
(
-0.1012697254
-0.0279674595
-0.1246044872
-0.1753192571
-0.1097607584
-0.003476835959
-0.254392649
-0.01860472867
0.07342436189
-0.3709041321
-0.07110591744
0.2885225326
-0.2636355576
0.09510217637
0.2289967088
-0.111302733
0.04561743658
0.3394322597
-0.07968360027
0.004562443236
0.2634414245
-0.106573456
-0.190367463
0.2842775907
-0.1460921366
-0.3057489019
0.2286085828
-0.2525662489
-0.3887035587
0.2641515763
-0.2655811836
-0.1830476559
0.2989857287
-0.0947911563
0.1060053913
0.3713321911
0.1327669191
0.1910878434
0.3019559888
0.1930449936
-0.01748153055
0.1815258386
0.07499116006
-0.1209904309
0.1726266032
0.1395423742
-0.008403781892
0.2190929705
0.3097366707
0.1413970418
0.2886631873
0.5629275175
0.1296440089
0.1551005307
0.5699574082
0.08296954398
0.08095298685
-0.01210844994
-0.04489312229
-0.1028271357
-0.02376393013
-0.08317151992
-0.1614220987
-0.2230357066
0.06370859387
-0.2291983649
-0.08488836366
0.03071819761
-0.3256620412
-0.2168108839
0.2132283363
-0.2595865977
0.07566820168
0.1966619321
-0.1576817797
-0.04091013459
0.305398093
-0.1652862089
-0.05738772856
0.2563366217
-0.1807751381
-0.332344145
0.3169642053
-0.1617348455
-0.4209809942
0.2956508999
-0.1601680269
-0.5313493818
0.3103955913
-0.1331383138
-0.2713950201
0.2757492616
-0.06265359008
0.1083146565
0.3282267976
0.05617396843
0.2430104332
0.3014771519
0.1284273441
-0.01103217671
0.2358193243
0.1044062603
-0.0764287433
0.2178939623
0.2041555289
0.08498433446
0.2070947196
0.3290903581
0.2988077793
0.2487358592
0.5347050752
0.2120023662
0.1305540281
0.5289494493
0.1030107699
0.08004741389
-0.06507722595
-0.03805736554
-0.1557428709
0.02814458797
-0.02391944981
-0.1974347408
-0.3101159539
0.1718295755
-0.2229854612
-0.1596437076
0.01315763086
-0.260208976
-0.405768613
0.1384835026
-0.265498186
-0.03497410027
0.1403122699
-0.2311128493
-0.2653665077
0.2583535439
-0.2722345898
-0.1948956975
0.2306608716
-0.2699533721
-0.4388521052
0.3479080832
-0.1712620977
-0.3022743811
0.3413678199
-0.05509116463
-0.4178064435
0.3575391158
0.03898902086
-0.2625440558
0.2095789171
-0.001699660592
-0.01424529231
0.2741593408
0.003158734643
0.1758292357
0.2757761129
0.09004900651
0.03042052977
0.2977796355
0.170907522
0.1069517617
0.2588109498
0.2971035171
0.2334067276
0.1745492629
0.3395544401
0.440115979
0.1848942626
0.4854700082
0.2425417888
0.1041498309
0.4883643689
0.1062819338
0.09926576867
-0.1229085528
-0.01163669102
-0.1951099225
0.1045639792
0.0206823511
-0.2187511392
-0.36429046
0.2458738276
-0.1984499179
-0.192482391
0.02939748052
-0.2074917412
-0.5574326968
0.1128906336
-0.2493299474
-0.1782121598
0.1121603794
-0.268889123
-0.5365799683
0.2361704419
-0.2977160474
-0.3716179497
0.224248902
-0.2674279566
-0.544307683
0.3504260567
-0.1594686436
-0.1272520979
0.3615329105
0.009164471189
-0.2256918577
0.3702489369
0.1399259102
-0.1993926821
0.1867426201
0.04853944891
-0.1914909849
0.2258467368
-0.02106407091
0.06396155258
0.257577399
0.09196845894
0.1102369938
0.3283977993
0.2262145118
0.3234364933
0.2794821702
0.3277018313
0.332866485
0.128569836
0.2856257997
0.4834485413
0.1248854667
0.3747527989
0.2412663633
0.09084844969
0.4175337096
0.1601460213
0.1427176111
-0.1204063924
0.03054270973
-0.297491893
0.1761294344
0.01395060226
-0.3095406862
-0.400479059
0.2249204764
-0.2471370642
-0.1534141436
0.05041081075
-0.2202985358
-0.6513640409
0.132722463
-0.2865084699
-0.2737306915
0.09407456529
-0.3188218242
-0.7568860274
0.2463190196
-0.276532886
-0.4625644515
0.2103208368
-0.2008466474
-0.6639047359
0.3222837333
-0.1344572498
-0.04520967978
0.2758668445
-0.01169931067
-0.1580241946
0.3599123547
0.1818243862
-0.08325063524
0.1209891362
0.1401676662
-0.2534859182
0.2319130872
0.07555197362
0.0882710505
0.195385983
0.1767381365
0.2154852571
0.3187481812
0.2953391571
0.5068483028
0.25818728
0.354897417
0.3049411273
0.094913079
0.2424390925
0.4416944591
0.08343003836
0.3017098522
0.2544349417
0.08920223422
0.3857586231
0.3277774693
0.1785832767
-0.01286651146
0.06850503404
-0.3299456805
0.2178152912
-0.03586081748
-0.3427198948
-0.4619276698
0.1197819799
-0.2745425901
-0.09459226366
0.06461412066
-0.2313752287
-0.7146144849
0.1828822162
-0.2917505305
-0.313657754
0.1164137596
-0.3116797095
-0.8511091927
0.277902185
-0.1806357722
-0.3848210147
0.2363460404
-0.06176143232
-0.7185452657
0.2770025325
-0.07266577973
-0.121445604
0.2026043179
-0.04784378551
-0.2522671059
0.3184106699
0.1418499048
0.06000164923
0.1451934671
0.2068263351
-0.1249931139
0.2628102942
0.1905630875
0.2853545649
0.1740491791
0.227197688
0.3448004184
0.2667376435
0.274597541
0.6272659208
0.2406433115
0.3082874215
0.227922433
0.09587781868
0.1936867608
0.3939512209
0.08523052176
0.2263663904
0.3066365757
0.08910330352
0.2901409335
0.5500765479
0.1771366495
0.1485441771
0.07424610853
-0.4418137536
0.2419913214
-0.09830053623
-0.4292643805
-0.5535065531
0.03535301399
-0.3761277017
-0.05784370899
0.05840226213
-0.3254882736
-0.7825047016
0.2396945928
-0.3425982789
-0.2710853458
0.1338158158
-0.3218363946
-0.8303939381
0.2973421055
-0.1406422192
-0.1269475043
0.2355050982
0.02305808167
-0.6669206956
0.2606609787
0.01142541522
-0.1625644449
0.09006705778
-0.01856032336
-0.4100812295
0.2914584978
0.1950594879
0.268691358
0.03916110784
0.3118348624
0.07074376505
0.2900235492
0.3301609676
0.5864286853
0.09513305602
0.2873675796
0.4423834471
0.2062070951
0.252415162
0.7554473888
0.2025207153
0.3133777859
0.2155565463
0.1357320701
0.2574364724
0.4380519397
0.1170150978
0.2666218888
0.3552050273
0.07273067121
0.2145825482
0.6953662905
0.1202953374
0.2230963345
0.03065842673
-0.4693963913
0.245354819
-0.1119604823
-0.4501302968
-0.6560357951
0.01701070527
-0.3844788858
-0.04463863471
0.06393774587
-0.3441788169
-0.8196491997
0.2606827312
-0.299995578
-0.153047478
0.1508006394
-0.2481095242
-0.7385642146
0.2781014542
-0.1095743657
0.1490056682
0.2427536831
0.05521085439
-0.5231287808
0.2540049124
0.1082519797
-0.0367399414
0.106674943
0.1179567165
-0.4413531801
0.2396516974
0.2822419822
0.4783432932
0.0181704332
0.3683560006
0.2039093981
0.2536406132
0.3631169218
0.7730563151
0.07767560687
0.2488447789
0.4385876349
0.1422706148
0.1444546427
0.8713860517
0.1925509199
0.251855341
0.3768203523
0.1934991936
0.2943683483
0.6044539043
0.1711978442
0.2643471994
0.3410063985
0.04853314138
0.0447876215
0.6138763158
0.03066731196
0.1257358118
-0.04190622785
-0.6184239491
0.2751979932
-0.08563257649
-0.5516213164
-0.7465910719
0.0648951116
-0.451292622
0.04174973439
0.04589106237
-0.3859416388
-0.7705500553
0.23130192
-0.2846039046
0.05814027954
0.1126261611
-0.1996868862
-0.6575262803
0.2108954086
-0.1404227147
0.3093485686
0.1811734397
0.01501664386
-0.4226663651
0.2735899774
0.1896380429
0.273667163
0.1367813329
0.2873464572
-0.3172928918
0.2725160134
0.436194221
0.6907278589
-0.008769555773
0.4471361396
0.1945482502
0.2435858206
0.4209623149
0.8148219885
0.05349157642
0.2796851033
0.3363811959
0.1229789694
0.1311479118
0.9779074058
0.1506473548
0.2529834638
0.6179487332
0.219124849
0.3385197395
0.8324441446
0.1969140219
0.293228178
0.2475763392
0.03144358558
-0.04568221825
0.3365653541
-0.03977059228
-0.122406519
-0.0989522277
-0.6497744978
0.3310639648
-0.04284992197
-0.5351762743
-0.7500905365
0.1202241567
-0.3912943599
0.2100432732
0.02787302793
-0.3133549665
-0.6441602004
0.1601952277
-0.1937294952
0.263282884
0.07142512679
-0.11148613
-0.6365293775
0.151433238
-0.1002633663
0.2730805578
0.1348654747
0.0204710713
-0.4068428437
0.2621199679
0.2345253916
0.5902064206
0.22221415
0.4161079408
-0.07451469501
0.2624327966
0.5107822779
0.8715305455
0.07228909202
0.45699071
0.1649797558
0.2198306739
0.4104113211
0.7891782988
0.126661669
0.2993193403
0.2293689948
0.1214065088
0.119011946
1.010975283
0.1178281947
0.1493661658
0.7602119628
0.1782049291
0.1794809334
0.9745018099
0.1919391144
0.1333340303
0.1344780929
0.04108228865
-0.1616503788
0.06590796439
-0.03916129
-0.3568126158
-0.1005123171
-0.7869676466
0.4177014184
-0.02605767426
-0.6005017926
-0.6598925149
0.1280291854
-0.4333815753
0.4115053113
-0.01456542681
-0.3354638793
-0.550191954
0.07591323073
-0.237443929
0.4046064422
0.02249651273
-0.1160574784
-0.6686901071
0.130871824
-0.04619325117
0.2325167306
0.08923631122
0.08746141781
-0.4586172641
0.2304705511
0.3074831093
0.793162891
0.1941907817
0.4746791119
0.09803871986
0.2520307117
0.5566209312
1.009573751
0.06104904986
0.4814064082
0.170826599
0.24114966
0.4780437037
0.8720400055
0.1675766424
0.4485297046
0.201759919
0.1477323959
0.2474068727
0.9466350159
0.05913842953
0.1096808644
0.6225326368
0.08317865969
0.01493210011
0.9253162945
0.1418442733
-0.01527892307
0.06062444202
0.07268653296
-0.1427034219
0.00557390701
0.03303477676
-0.407764496
-0.04434719466
-0.7357418969
0.5183504587
-0.03185786053
-0.5161870335
-0.529046442
0.1011362723
-0.3609322266
0.5286183834
-0.03868596047
-0.3004277427
-0.5720456494
0.032127731
-0.2341917232
0.4684007223
0.03458510423
-0.09267930803
-0.6439943244
0.1787853752
0.08951945474
0.3485545251
0.1299826837
0.2583729622
-0.4286124232
0.1989319394
0.4023159217
0.8337675172
0.1752207078
0.4875883453
0.08610653518
0.2034578264
0.5055028646
1.016142548
0.1272893335
0.4360084072
0.1987159533
0.2447466718
0.4576033347
1.038249794
0.2370503898
0.4827791739
0.2733024024
0.1711643008
0.2704279037
0.7754050706
0.04075866909
-0.02019579577
0.2466557402
0.004259974198
-0.2589328738
0.693027672
0.09301187684
-0.2716429808
0.07218368218
0.1127535126
-0.200625963
0.2238527238
0.1358814714
-0.2409227732
0.03137546164
-0.8125795818
0.6393923842
-0.04315524043
-0.5926497192
-0.4644141869
0.05710500433
-0.4557806016
0.5662193595
-0.05532889403
-0.3840408473
-0.6464948565
0.01720948879
-0.3112913589
0.5393901472
0.03349061011
-0.1230866846
-0.4867613459
0.2109304922
0.1654344194
0.6994963374
0.1511403412
0.409229447
-0.2485176646
0.1719075612
0.5083353892
0.8631933338
0.1041497245
0.5178995669
-0.05671691173
0.1646657272
0.5435998814
0.9053031796
0.1165057976
0.4856611392
0.1572617622
0.2174982612
0.4783001426
1.146119681
0.1960191098
0.4784936926
0.3107360418
0.1687229794
0.3085872902
0.5925139878
0.04070708698
-0.005393625927
-0.1725981455
-0.02715508226
-0.2980221194
0.4205197557
0.05039248657
-0.3246651024
0.1003640511
0.1170004172
-0.1811620684
0.5598658635
0.1845986635
-0.02518250083
0.07411850446
-0.7038620284
0.7260078982
-0.04179981942
-0.5543713728
-0.4572684278
0.04540776906
-0.4073215848
0.6149062648
-0.0339254451
-0.3111783836
-0.6147759661
0.05089290931
-0.2123568427
0.6941883921
0.056389396
-0.03309063655
-0.2129465159
0.2156399752
0.2348239483
1.090444687
0.1817897436
0.4685988939
-0.0006901199461
0.1764390686
0.5365344632
0.9353384283
0.1266931733
0.5383960061
-0.1698193023
0.1650804024
0.5706999606
0.7643445352
0.1521011548
0.5170682058
0.02009851303
0.1545577093
0.3842568747
1.026846293
0.1374747465
0.2860197163
0.1896655195
0.1407952771
0.1534929451
0.4588261903
0.0978369601
-0.03784928952
-0.4194114289
0.01957389297
-0.2787230455
0.2069033673
0.04359160293
-0.3671201284
0.03248880889
0.07632215588
-0.3331680918
0.6926308714
0.1462406785
0.08029794424
0.05940407565
-0.7884223615
0.7727336751
-0.02448422452
-0.6862549299
-0.4587093462
0.04085184957
-0.50344668
0.8010173899
-0.007566286506
-0.3143514977
-0.383479817
0.06683229096
-0.1588228452
0.95694182
0.03165722358
0.01017061163
0.02464906437
0.1354583855
0.2124065799
1.348907222
0.1285335481
0.3998778748
0.1982665004
0.1650794269
0.4961709057
1.081065879
0.136243242
0.568577053
-0.126490882
0.1746107343
0.6759513272
0.7355960877
0.122590815
0.6243316851
-0.1856689302
0.07539273144
0.3801126615
0.6704615873
0.02926403421
0.1642872755
-0.1236847533
0.08076916678
0.0819220057
0.3906220861
0.1316322052
0.06153592692
-0.4339598761
0.08723306763
-0.06392647995
0.1126735084
0.04717454185
-0.2053898086
-0.1767228187
0.009502790588
-0.3757576387
0.4882481488
0.03756711516
-0.03476059116
0.004035784769
-0.6381649233
0.7885530751
-0.0166835291
-0.57638197
-0.4153056861
0.057935582
-0.3796758239
1.110345068
0.02891010994
-0.1721229754
-0.02568232699
0.1014075269
0.008776279137
1.266283029
0.03531361725
0.1278385739
0.1620720205
0.08250297874
0.2244938101
1.406347014
0.09424349847
0.3140533997
0.2655443861
0.1654151053
0.3900544137
1.217247906
0.1800987322
0.5038659823
0.01848363169
0.193924619
0.6285774074
0.8264019427
0.140111606
0.5912020027
-0.3442759791
0.05278754693
0.3098734916
0.2422240481
-0.004864557878
0.03483664414
-0.5176603228
0.04499442041
-0.05944435347
0.2834473487
0.1457448974
-0.004983067709
-0.4055750403
0.1292334018
-0.03718235013
0.06236823142
0.06941047207
-0.1930484139
-0.4666700036
-0.03382286897
-0.4781236578
0.1074477151
-0.04242146546
-0.2625205913
-0.04519795928
-0.661421346
0.7945859864
-0.01716575802
-0.5767042683
-0.3110195337
0.03501643712
-0.3962718952
1.415279845
0.03330270345
-0.2073142188
0.3028028056
0.08179236649
-0.01272882355
1.569785452
0.02057874316
0.1172994116
0.2799875184
0.0257831648
0.1956265076
1.411196378
0.03583318369
0.2452670491
0.284094341
0.1187755582
0.321916721
1.294062019
0.1295777217
0.4289430006
0.1605146657
0.1391005658
0.5361530481
0.9243013115
0.09921370351
0.5248229596
-0.3910192498
0.05658738037
0.3644478151
-0.005650572814
-0.001566564271
0.1324762161
-0.8126348877
0.01965935143
-0.001343629088
0.08833908711
0.08078561583
0.01766614353
-0.4732006932
0.1115219354
0.01448175573
-0.003177275258
0.06901954179
-0.1037633398
-0.6975724899
-0.04245828702
-0.3601493044
-0.1919131732
-0.07774061289
-0.437538567
-0.05952217407
-0.3978480384
0.829303519
-0.03110142281
-0.2955378169
-0.1863286541
0.03141628786
-0.1996491938
1.587885596
0.030715666
-0.1221457801
0.4241599134
0.08046392059
0.02228244645
1.803818273
0.05163915176
0.140097459
0.4610150482
0.04998197265
0.2175110062
1.52102576
0.04562658448
0.2320946096
0.3348062521
0.09515271002
0.250744228
1.300834799
0.08568460929
0.3023012261
0.1486285417
0.08160000632
0.2902332097
0.9072880242
0.09424679264
0.2794795878
-0.4099329545
0.09715488434
0.2739207672
0.01692454789
0.08343963945
0.1495949709
-0.913097868
0.03582294358
-0.02705073324
-0.1584275537
0.03806885276
-0.09690974537
-0.6932169052
0.07039340527
-0.1255948728
-0.1314785718
0.0743899253
-0.18395937
-0.7798438764
-0.01082062034
-0.3063075822
-0.2609185268
-0.04490286146
-0.4555316274
-0.04198020761
-0.3245568364
0.9151336553
-0.02075982772
-0.2347875749
-0.08224176496
-0.003395398874
-0.1955426699
1.585851573
0.006766893236
-0.1955801725
0.3843660547
0.03191995644
-0.0963907951
1.92866834
0.03597977748
0.04985472906
0.6950006859
0.03049874162
0.1610378213
1.755343175
0.02486231098
0.1901343481
0.4332684808
0.03579607515
0.2154010609
1.268771546
0.001928050994
0.1885991721
0.02024748115
0.003969021538
0.1405178544
0.7545188232
0.04023265252
0.1487773129
-0.398999579
0.0999685282
0.2289326356
0.2368526045
0.0967940483
0.2364439883
-0.8069450659
0.03689422708
0.0942975614
-0.3400550378
-0.006102527393
-0.04207336773
-0.9513529255
0.01690749589
-0.09845470556
-0.2843897478
0.04326486999
-0.09007406769
-0.722801658
0.02022999336
-0.1020831228
-0.1342669325
-0.004152263576
-0.3811008807
-0.0147031214
-0.01047155134
-0.006520907081
0.02728212425
0.01409125032
0.009598138226
-0.01354741748
0.007275887247
0.03818242362
0.004349552547
0.0285720252
0.0268419786
0.01771800334
0.09460950785
0.03925069594
0.08340631876
0.02213971782
0.07122621808
-0.001979716617
0.05461900227
0.009738532119
-0.02679174018
0.01938614946
-0.005623681274
0.0585693313
0.0642419184
0.0811344284
0.07283822734
0.01304235368
-0.0003142676122
-0.008728498884
-0.06591089309
0.005847598193
-0.1274924823
0.01196529308
-0.1149437294
0.01425775504
-0.06694201455
0.02688708319
-0.009274810693
-0.08674973793
0.1487834311
-0.1469085986
0.06731422307
0.1653879201
0.1637711893
-0.02978992956
-0.1272026358
0.1135545308
-0.2871644452
-0.3408390124
0.4522722371
-0.2482701741
-0.04015726955
0.39378685
-0.1213962118
-0.05264082296
0.6828193308
-0.1099871849
-0.008696199857
0.5463061606
-0.1132666085
-0.09344191948
0.5450335253
-0.1226728081
-0.1289347771
0.4757812646
-0.161195481
-0.2668529206
0.5236424131
-0.2161838121
-0.295287528
0.5608196353
-0.1960969309
-0.03130460188
0.6490329129
-0.0137741331
0.182898419
0.5922771691
0.1649272967
0.1535360385
0.413071005
0.1724826264
0.004163169179
0.3829444578
0.1698571484
-0.07800056386
0.3133570712
0.1630912356
0.004903159289
0.4314960834
0.3422078307
0.05954946219
0.2532214918
0.4456836531
0.1047501573
0.2057239584
0.02765687119
-0.04532433085
-0.06520554438
0.2384916043
-0.1305308995
-0.03977618286
0.174673802
0.2192776576
-0.07935031895
-0.1574814146
0.05729544596
-0.2076913575
-0.534521637
0.3785093116
-0.2013392657
-0.1134798486
0.361616539
-0.1210033885
-0.1695101642
0.6348727704
-0.1334851017
-0.09533291479
0.5203193656
-0.1568016149
-0.2370756406
0.5774717127
-0.177139947
-0.2217854651
0.5759696283
-0.1524869478
-0.388554963
0.6127795743
-0.1106239856
-0.4368420902
0.5577181625
-0.09863168744
-0.09022125774
0.5954271826
-0.02653620028
0.2099892735
0.5769838673
0.08636555787
0.2128650142
0.4715511798
0.126298991
0.05666533512
0.4428221379
0.1847876956
-0.0632780462
0.3194016731
0.1955366932
0.06920560689
0.4006009533
0.355417008
0.1345754799
0.223812113
0.4218146277
0.2078471338
0.1915568865
0.05116711853
-0.03987299822
-0.0611985791
0.2280720456
-0.09953519451
-0.2204404725
-0.04157842432
0.3145107543
-0.1873752356
-0.1376494713
0.03673560562
-0.1541209318
-0.5726371733
0.339783722
-0.1559505347
-0.1687801491
0.302987828
-0.1353243405
-0.3320858271
0.5440798428
-0.1717067289
-0.2440912149
0.4513146758
-0.2076456289
-0.443964157
0.6107977642
-0.2347210056
-0.2551225164
0.6304080985
-0.1443967921
-0.3366988345
0.6920943173
0.0306827272
-0.3907914238
0.454270762
0.04316143746
-0.1621274861
0.5153864605
-0.001141802359
0.1001389989
0.5003001326
0.03019830658
0.177372839
0.527989547
0.08776219623
0.1624587636
0.4907253769
0.2269721853
0.03590652384
0.3120883958
0.260405766
0.1874648493
0.3340789168
0.3826523969
0.2057502642
0.1785781924
0.3886626652
0.2907849711
0.1895171951
0.05848183691
-0.02036433253
-0.04577904611
0.1119350146
-0.06243093117
-0.3287453598
-0.4000907968
0.3753849208
-0.2483700298
-0.1189153665
0.08336759595
-0.1104974199
-0.5058340807
0.3681277889
-0.1134295398
-0.2040177327
0.2716318161
-0.1479843566
-0.4989343601
0.4830806107
-0.1768531375
-0.3986591903
0.4436820432
-0.1921071559
-0.6733437872
0.6344843517
-0.2388066953
-0.2984460966
0.6639688215
-0.141003733
-0.2220892159
0.6901920715
0.1020724644
-0.2614281458
0.4161989703
0.1429822429
-0.2014356765
0.4614657843
0.0356533182
-0.05512106136
0.4618360394
0.006489814585
0.1067817838
0.5371529493
0.06098965319
0.2908781717
0.5159069057
0.2399337858
0.1640836792
0.2774297958
0.2877835343
0.3055023448
0.2697968507
0.3643375982
0.2459672639
0.1413367172
0.3158747264
0.3319082532
0.20554631
0.04576867105
0.01190756428
-0.1386019551
0.01521388511
-0.08526091773
-0.3919501355
-0.7123826955
0.3260880347
-0.3001125384
-0.08999084818
0.118988789
-0.1417415943
-0.4514008551
0.4218483058
-0.1549739813
-0.2034473547
0.2228983161
-0.2107733357
-0.6638871595
0.4625210645
-0.1966835257
-0.4480697196
0.4377710852
-0.1257255578
-0.8191483699
0.6330681203
-0.1736026686
-0.3432680043
0.4957116086
-0.1380621857
-0.2052515235
0.6128839665
0.1310070328
-0.1019258804
0.2122978968
0.2190757854
-0.166091898
0.4783192067
0.1457358046
-0.06928516377
0.3529709621
0.07656761104
0.07815788157
0.4969430832
0.08779745244
0.4354637217
0.465760734
0.2708898763
0.2876875843
0.2464753352
0.3217115791
0.4199885889
0.2144395161
0.3650481343
0.248246625
0.1153420515
0.2627035536
0.3403553358
0.222728643
0.01721119043
0.04247902138
-0.230512579
0.02128686332
-0.1369641333
-0.2985670338
-0.7943604788
0.1842669398
-0.2434731647
-0.05072170419
0.1298894678
-0.1691568091
-0.4888328696
0.4579026808
-0.1862979692
-0.2198638646
0.2220390239
-0.2452561819
-0.8100034589
0.4929337862
-0.1868142431
-0.3580157619
0.532402031
-0.02047693136
-0.8008996836
0.614975275
-0.04975812657
-0.3723255543
0.3737575596
-0.107692028
-0.3510577633
0.5013361917
0.1023957129
-0.04792941217
0.1730432754
0.220152136
-0.08085066268
0.5332576806
0.2300512076
0.0890811638
0.3528266886
0.1641486681
0.1202718537
0.4196119285
0.09355975003
0.5598695558
0.4304585839
0.2364094145
0.3931009122
0.2386744786
0.2834277604
0.5279113503
0.2145419495
0.3004616232
0.2405660812
0.1057982691
0.1626575229
0.3236162402
0.2168835764
-0.02057978488
0.04540523094
-0.3929718756
0.1504387601
-0.2036191179
-0.2868854394
-0.6997016873
0.09408634136
-0.2530422337
-0.04960877285
0.07902816026
-0.2835216161
-0.684407877
0.4654237466
-0.2791486921
-0.2627100221
0.2104841053
-0.2808757175
-0.9369174015
0.5298952293
-0.2001632218
-0.1653649802
0.5304307806
0.03181930248
-0.6439076586
0.5931004537
0.06886211615
-0.2269625474
0.1690642227
-0.0207869606
-0.4995687122
0.4148858845
0.1575563582
0.1035396524
-0.2027872331
0.2563190877
0.03008703483
0.5785037814
0.3375963765
0.4113047536
0.218493013
0.2927981424
0.2039268827
0.3434253779
0.1448863962
0.6783923605
0.341664665
0.2313213105
0.4680935365
0.268946613
0.2610128121
0.6489416364
0.2444279973
0.2755134071
0.2407938341
0.09559223991
0.1157502713
0.3091868286
0.1614590719
-0.07162567875
-0.0008765077035
-0.4356311282
0.3015882309
-0.1952655838
-0.2599008307
-0.6024303327
0.09472015067
-0.2287360544
-0.1036299514
0.05788563601
-0.3162826192
-0.9302066432
0.4386760199
-0.2750878038
-0.2797390331
0.2486873465
-0.2131733276
-0.9756216954
0.534885213
-0.1641795158
0.02405351105
0.524496635
0.03287573002
-0.4733341047
0.5479518179
0.1016506583
0.07560623189
0.1816524431
0.06932896053
-0.4953704126
0.3379745218
0.2670557369
0.4437015599
-0.449775976
0.3235863813
0.1446721271
0.49355523
0.3697146048
0.7459484938
0.1884962121
0.3404941304
0.288834671
0.2585985565
0.1491282442
0.7461879663
0.3160809203
0.1659640173
0.5139914514
0.3094219562
0.1534650116
0.7667190585
0.304312642
0.1601461877
0.2638318067
0.08160986231
0.00843906392
0.2989563536
0.07453070754
-0.1196525334
-0.07312190325
-0.5788273317
0.4065583871
-0.144701554
-0.412335911
-0.6325889935
0.2098494949
-0.3417844916
-0.08521689989
0.03425747641
-0.3839400656
-1.05926068
0.3934724072
-0.2770048243
-0.1309772419
0.2210335997
-0.1233481756
-0.8796925736
0.4754316884
-0.09716627745
0.1343273074
0.377991714
0.03338816531
-0.4308242124
0.5089044366
0.1617485862
0.3695738487
0.2524527676
0.2384149432
-0.37155691
0.4578811719
0.4032095558
0.7071334867
-0.224034731
0.3797531774
0.1940200309
0.4843166537
0.3868889161
0.9495703429
0.1621788397
0.3803394797
0.298481502
0.2605558177
0.2162886833
0.7680895841
0.2583977732
0.1710834568
0.4924705879
0.3157842751
0.09625377987
0.8423894983
0.3092043644
0.08818590918
0.2842378838
0.06474522421
-0.03027471657
0.3088183231
0.004980216546
-0.1586106122
-0.1273332495
-0.6042941896
0.4325633758
-0.06917145094
-0.4988308613
-0.7118418611
0.3068143941
-0.3527200463
0.0714744762
0.06275422419
-0.3024099638
-0.9606118578
0.3312020069
-0.1687646782
0.1382909561
0.1943324886
-0.007478121266
-0.6823628114
0.3988238035
0.007818442942
0.1859558202
0.2827753544
0.06520029925
-0.5142550757
0.4497266935
0.1715411365
0.5479757436
0.4317013683
0.3187820846
-0.1875675116
0.5073630361
0.5099482947
0.9054273883
0.03804482672
0.430108798
0.2326589051
0.4012971964
0.3499852085
1.044562427
0.2733431737
0.34773279
0.2918705157
0.2791207147
0.2259948847
0.7616499311
0.2506660747
0.125881802
0.4055949769
0.2516828386
-0.03397835426
0.8275573379
0.2793535891
-0.08487735597
0.2801026569
0.0672604976
-0.1548297504
0.3441964495
0.01616367919
-0.1589748502
-0.1193909894
-0.7555475163
0.4574833695
-0.05644448759
-0.6522827962
-0.7210687683
0.3078721968
-0.4472364337
0.310443128
0.02886292744
-0.2912427781
-0.7641157424
0.2346194278
-0.1651216974
0.4058116596
0.1037431272
-0.01186543139
-0.5360164526
0.3352924771
0.06726541608
0.2771558774
0.2009403071
0.15934741
-0.5945197678
0.3995242492
0.2677053286
0.6262040718
0.3954892843
0.4265595319
-0.04566119786
0.5099204238
0.6021287898
1.054098224
0.08267923848
0.4800817944
0.1997439852
0.4049897834
0.348630457
1.057905563
0.2989574548
0.3510807392
0.3077731887
0.3320555433
0.2957671601
0.7851469484
0.1912759513
0.1652365944
0.2641742615
0.1350447481
-0.07587243337
0.7084978473
0.1898755838
-0.165072346
0.2168984121
0.09260405721
-0.1965085076
0.4089152889
0.09512976324
-0.1164018558
-0.04403286615
-0.7244776333
0.5386077881
-0.07619637153
-0.5878605954
-0.6270200084
0.22446044
-0.3693236467
0.5259752381
-0.001214296409
-0.1938145144
-0.6218572925
0.1730272486
-0.1049991836
0.5257905846
0.09919275268
-0.02451710115
-0.4962334462
0.3609039008
0.1198965722
0.4517336686
0.2892276963
0.2873339995
-0.5211255286
0.3967991166
0.3858169876
0.7018185638
0.3728064233
0.4910713888
-0.0008857953398
0.4165019641
0.5985966312
1.033412254
0.2360691069
0.4644516193
0.07303521471
0.3876554696
0.2928852829
0.9725354765
0.3792489863
0.2771780766
0.320896044
0.349293962
0.2374230324
0.8154463886
0.1966533473
0.1027551046
0.1028572229
0.04242357269
-0.1714065916
0.517635144
0.1320815894
-0.3001748367
0.09903841591
0.1332427808
-0.3270457132
0.4584243033
0.2146475074
-0.06121011975
0.049467307
-0.8217372498
0.6859393735
-0.1105402417
-0.6481455537
-0.5225447833
0.1123621199
-0.4463199181
0.6615271495
-0.06318532674
-0.247986727
-0.5792815181
0.1306106309
-0.1556288965
0.5723652707
0.07092863734
-0.08327724151
-0.5059215371
0.360315202
0.1238732928
0.7254146301
0.3368043698
0.3890956936
-0.2730905961
0.3855703962
0.5290407648
0.8639035108
0.2294191045
0.575191129
-0.04971910559
0.3132894586
0.6192048035
0.89240256
0.2172152452
0.5118392248
-0.1225844056
0.3558288231
0.3487863214
0.8189330239
0.2956194573
0.2701214614
0.2448473208
0.3152454056
0.2065346023
0.7993737148
0.1850050722
0.1162928009
-0.03241943601
0.02801640272
-0.1171467337
0.335548514
0.08371594774
-0.2607904856
-0.05838070772
0.1337515
-0.3438816513
0.4426095916
0.2522834775
-0.04606382297
0.09253259684
-0.701414268
0.7980054756
-0.1038505246
-0.5703835702
-0.475032734
0.07236307321
-0.3794291724
0.7738029687
-0.04647905677
-0.1939128116
-0.5127428025
0.1770860587
-0.07307056326
0.6685652607
0.122725888
0.002720428248
-0.4303003762
0.362130179
0.187967726
0.9839202093
0.3814265904
0.4349021913
0.02482050194
0.3874740471
0.5590666093
1.041924905
0.2448004832
0.5567079
-0.0971904072
0.2929173852
0.5553752989
0.7383441784
0.3065673728
0.5135272663
-0.2890684141
0.2970073634
0.3619364343
0.6112666143
0.2346025239
0.1846857427
0.0225460897
0.2395249372
0.05491018834
0.6747249216
0.2458924635
-0.007386761033
-0.1306947325
0.09752205843
-0.1518113221
0.2231345908
0.1002774261
-0.2896138793
-0.2325021277
0.0885147113
-0.4504572157
0.3133396756
0.18989388
-0.1105255387
0.05871528669
-0.7750189605
0.8242251669
-0.07028566019
-0.6851485341
-0.4820514887
0.06927263269
-0.4859293103
0.9526129807
-0.01518942139
-0.2758660923
-0.3064278989
0.1918770517
-0.07066234099
0.9234405982
0.1025232515
0.08227687895
-0.2496646205
0.2562275596
0.2374682462
1.162909698
0.2529270902
0.4119339077
0.1782587303
0.3058737141
0.5045852886
1.1407605
0.2216175668
0.5116568565
-0.1062422558
0.2937253026
0.5559878153
0.7163441248
0.2694862622
0.5842021288
-0.3202486379
0.2138518524
0.4719826863
0.4193569645
0.088498152
0.2304660912
-0.3066077645
0.1381945371
0.02873309325
0.4461129266
0.2336905986
-0.02298944524
-0.2307472197
0.1713321594
-0.0871666327
0.1804990918
0.1084342559
-0.1929560784
-0.3938870813
0.009017445099
-0.3937993081
0.1198705389
0.04034237353
-0.2413177077
-0.01977019219
-0.5963800167
0.7946180214
-0.04585861368
-0.5402009221
-0.4804237692
0.1114498793
-0.3726504946
1.206571264
0.05174296119
-0.1904956664
0.008205061422
0.2290898074
0.03516433263
1.285875094
0.133503004
0.2176829679
-0.01376464349
0.2219376806
0.3242126679
1.259726785
0.1811542493
0.3704596634
0.1764722923
0.2562977421
0.3736423018
1.119114529
0.2851213074
0.3963092934
-0.09782088277
0.326309824
0.4569896359
0.7924273263
0.3015474499
0.5019654084
-0.2630545626
0.1935229137
0.427105975
0.2827221168
0.08608025203
0.1926804557
-0.6220677398
0.09851711679
-0.05761013938
0.1346321048
0.2228059475
-0.1447594776
-0.3843044569
0.1977339159
-0.1845983387
0.1135555282
0.1399137824
-0.245228967
-0.5151550336
-0.02583667272
-0.4254931616
-0.07253260251
-0.05262027643
-0.3617368943
-0.07767971559
-0.6252066849
0.7906078019
-0.03991814964
-0.5259794319
-0.4055850604
0.0826660263
-0.397474619
1.432455541
0.04420000038
-0.2669208871
0.2568733875
0.1480638474
-0.04006729015
1.641222171
0.09730803311
0.1955849144
0.2405540608
0.1420490018
0.3161893938
1.355405559
0.07718425467
0.3102193662
0.1410563672
0.1552096355
0.312971365
1.063312851
0.1986443447
0.3582563404
-0.07002546837
0.2364685909
0.4215734137
0.8526658373
0.1975334739
0.4381827369
-0.2289221479
0.1645730426
0.4161623462
0.2172212848
0.09907362112
0.2697217057
-0.8101078715
0.07968233814
0.05056952843
-0.1325094426
0.107466646
-0.09431938457
-0.6159464291
0.1282035451
-0.1734447459
-0.007564571002
0.1127837344
-0.1951560054
-0.5953102457
-0.01818505569
-0.2808719873
-0.1441616059