/*--------------------------------*- C++ -*----------------------------------*\
| =========                 |                                                 |
| \\      /  F ield         | OpenFOAM: The Open Source CFD Toolbox           |
|  \\    /   O peration     | Version:  5.x                                   |
|   \\  /    A nd           | Web:      www.OpenFOAM.org                      |
|    \\/     M anipulation  |                                                 |
\*---------------------------------------------------------------------------*/
FoamFile
{
    version     2.0;
    format      ascii;
    class       volScalarField;
    location    "6.8";
    object      rho;
}
// * * * * * * * * * * * * * * * * * * * * * * * * * * * * * * * * * * * * * //

dimensions      [1 -3 0 0 0 0 0];

internalField   nonuniform List<scalar> 
30538
(
1.269374188
1.28944485
1.28981205
1.289837791
1.289839514
1.289857739
1.28993047
1.28995668
1.289952867
1.28996819
1.290054696
1.290126561
1.290136315
1.290100284
1.290070233
1.290034899
1.29000408
1.289977666
1.290009374
1.295068863
1.269413322
1.289498788
1.289797018
1.2898151
1.289860864
1.289898578
1.289961969
1.289985745
1.289992243
1.290003019
1.29006146
1.290123558
1.290150959
1.290135929
1.290112139
1.290077755
1.290032673
1.289974451
1.289975697
1.295047256
1.269628487
1.28953452
1.289759194
1.289766554
1.289847913
1.289894088
1.289944706
1.289968711
1.290000567
1.290018593
1.290053458
1.290100978
1.290141515
1.290146049
1.29013335
1.290107214
1.29005469
1.28995799
1.289915823
1.295063047
1.269702745
1.289537089
1.289731236
1.289732128
1.2898249
1.289868121
1.289897111
1.289921225
1.289979417
1.290018646
1.290051317
1.290095672
1.290142689
1.290153788
1.290143829
1.290128497
1.290082459
1.289965311
1.289886906
1.295012911
1.270205574
1.289500185
1.289711446
1.28970995
1.289780793
1.289815727
1.289832761
1.289859124
1.289936625
1.289999474
1.29005226
1.29010698
1.290159316
1.290168434
1.290147509
1.290131845
1.29009468
1.289984401
1.289902095
1.295138975
1.27041408
1.28943412
1.28969159
1.289694628
1.28972695
1.289754757
1.289776584
1.289808124
1.289883595
1.2899572
1.290039607
1.290118856
1.29018411
1.290195731
1.290155054
1.290114888
1.290072213
1.289989799
1.28994076
1.295079475
1.271293599
1.289397928
1.28967231
1.289681033
1.289683619
1.289706592
1.289749189
1.289783908
1.289835513
1.289907436
1.290010639
1.290113431
1.290199497
1.290225898
1.290175654
1.290094294
1.290026765
1.289971577
1.289968377
1.295219511
1.271661876
1.289406452
1.28965614
1.28966116
1.289653985
1.289674369
1.289743046
1.28978096
1.289806064
1.289865395
1.289972362
1.290089098
1.290191955
1.290240933
1.290202992
1.290088857
1.289988029
1.289943631
1.289972642
1.295081274
1.272955529
1.289469171
1.289636919
1.2896239
1.289617506
1.28963876
1.28972573
1.289774975
1.2898016
1.28984557
1.289940223
1.290056975
1.290162164
1.290225518
1.290211236
1.290099184
1.289985817
1.289934279
1.289966159
1.295107796
1.273455163
1.28951724
1.289603047
1.289565078
1.289570343
1.289597929
1.289679107
1.289749261
1.289806368
1.289837605
1.289915664
1.290025617
1.290125208
1.29018172
1.290179831
1.290104485
1.290014057
1.289953812
1.289959072
1.294790131
1.275110493
1.289544058
1.289564411
1.289511832
1.2895369
1.289570109
1.289623849
1.289705557
1.289788945
1.289820462
1.289889751
1.28999737
1.290092758
1.290125449
1.290111172
1.290082797
1.290044912
1.289987968
1.289961338
1.294641812
1.275652745
1.289531884
1.289547049
1.289492262
1.289541264
1.289570899
1.289595072
1.289663311
1.289742163
1.289784678
1.289850871
1.289961132
1.290062022
1.290079324
1.290038685
1.290037141
1.290043527
1.29000918
1.289966877
1.294195007
1.277712687
1.289539519
1.289563455
1.289516318
1.289559963
1.289590519
1.289602599
1.289641582
1.289700734
1.28974576
1.289807966
1.289912835
1.290020965
1.290040835
1.289994658
1.289991437
1.290019205
1.290002755
1.289961251
1.293926038
1.278311011
1.289563068
1.289601519
1.289554167
1.289560439
1.289591833
1.289621333
1.28964748
1.289691655
1.289727928
1.289776857
1.289853235
1.289953524
1.290000939
1.289981881
1.289967574
1.289980288
1.289967514
1.289932075
1.29336385
1.280755117
1.28962261
1.289644469
1.289585738
1.289544099
1.289569046
1.289632296
1.289674727
1.289708113
1.289737207
1.289763549
1.2897944
1.289870846
1.289951085
1.289982125
1.289957941
1.289939745
1.289914827
1.289883229
1.292961962
1.281338459
1.289663644
1.28967559
1.289608036
1.289538362
1.289547032
1.289627258
1.289684485
1.289720684
1.28974832
1.289766826
1.289768521
1.289808359
1.289897439
1.28995846
1.289935985
1.289896426
1.289862748
1.289841082
1.292318335
1.284074157
1.289692282
1.28969051
1.289639182
1.289576579
1.28956268
1.289619369
1.289672617
1.289710039
1.289742777
1.289773034
1.289782072
1.289797838
1.289851892
1.289898647
1.28988845
1.289852132
1.28982545
1.28981675
1.29178545
1.284544379
1.289691505
1.289697056
1.289677221
1.289650901
1.289619318
1.289627829
1.289659021
1.289683748
1.289717195
1.289778491
1.289811806
1.28982476
1.289826283
1.289828421
1.28982442
1.289810476
1.289802114
1.289809218
1.291114009
1.287565819
1.289484094
1.289705644
1.289384612
1.289698425
1.289307289
1.289616801
1.289350045
1.289642984
1.289517206
1.28977069
1.289759498
1.289860843
1.289774216
1.289808072
1.289757069
1.28981271
1.289781999
1.289819863
1.290540966
1.307673759
1.262557312
1.301470388
1.258114097
1.294939896
1.257448586
1.290918496
1.260613002
1.290140494
1.266616503
1.29233679
1.273962811
1.295911135
1.280606678
1.29873324
1.284741454
1.299442326
1.285478128
1.297820728
1.283708292
1.265620894
1.289429064
1.289824642
1.289857457
1.289886991
1.289881489
1.28992461
1.289966876
1.289976772
1.289959361
1.28999433
1.290060075
1.290096552
1.290065769
1.290005449
1.28996347
1.289959921
1.28994831
1.289995893
1.296543129
1.265653415
1.28946403
1.289818716
1.289840108
1.289882332
1.289895457
1.289944449
1.289981895
1.290007146
1.290003839
1.290027739
1.290070861
1.29010156
1.29008823
1.290055003
1.29002421
1.290000867
1.289953595
1.289975823
1.296560771
1.265852774
1.289475006
1.289791868
1.28980216
1.289856006
1.289887729
1.289931318
1.289953446
1.289995847
1.290023172
1.290044153
1.290059753
1.290079476
1.29008471
1.290084282
1.290070199
1.290026118
1.289939299
1.289927019
1.296614278
1.265941942
1.289469097
1.289770116
1.289776015
1.289834045
1.289879976
1.289908306
1.289906365
1.289959105
1.290016745
1.290052944
1.290058138
1.290068732
1.29008412
1.290102203
1.290097152
1.290042484
1.289936688
1.289905808
1.296671689
1.266436646
1.289449673
1.289754801
1.289758704
1.289806425
1.289854009
1.289874023
1.28985955
1.289911793
1.289989048
1.290048765
1.290064054
1.290076299
1.290096155
1.290112579
1.290099024
1.290043424
1.289948734
1.289926779
1.296832071
1.266693011
1.289418167
1.289730274
1.289737456
1.289770523
1.289810404
1.28983557
1.289831946
1.289871918
1.28994964
1.290027018
1.290067482
1.290095509
1.290122168
1.290124692
1.290084179
1.290026965
1.289961069
1.289966657
1.296917353
1.267599056
1.289408188
1.28969623
1.289708771
1.289733504
1.289760004
1.289805307
1.289827054
1.289853326
1.28991128
1.28999369
1.290059896
1.290113833
1.290151547
1.2901425
1.29007139
1.290005054
1.289963346
1.289992184
1.297033876
1.268076402
1.289415322
1.289662282
1.289676873
1.289697187
1.28970944
1.289776661
1.289826431
1.289849886
1.289882481
1.289957145
1.29003997
1.290115183
1.29016582
1.290157953
1.290071237
1.289990852
1.289954252
1.289989849
1.296985553
1.269466078
1.289456683
1.28964362
1.289643394
1.289659073
1.289664838
1.289735799
1.289805732
1.289852797
1.289870062
1.289930153
1.290017361
1.290102192
1.290160762
1.290157287
1.290075926
1.289996125
1.289949348
1.289971335
1.296914218
1.270148619
1.289493525
1.289637391
1.289606745
1.289618892
1.289631809
1.289683075
1.289762175
1.289842312
1.289865636
1.289913673
1.289998471
1.290086914
1.290140623
1.29013037
1.290068281
1.290009586
1.289957859
1.289959822
1.296639251
1.27199969
1.28952618
1.289624475
1.289569705
1.289585075
1.289615677
1.289642596
1.289715501
1.289810905
1.289847792
1.289896187
1.289977482
1.29007157
1.290110854
1.290083022
1.290041268
1.290016366
1.289978398
1.289968085
1.296330615
1.272791553
1.289523609
1.28960669
1.289543613
1.289568507
1.289613458
1.289639456
1.28968856
1.289762781
1.289811948
1.289865772
1.289944936
1.290040199
1.290075182
1.290036938
1.290007952
1.290007638
1.289989208
1.289979408
1.295845554
1.275141673
1.289533199
1.289597558
1.289545628
1.289566476
1.289618804
1.28966388
1.289686795
1.289718283
1.28976982
1.289833183
1.28990426
1.289986873
1.290028795
1.290011285
1.289989389
1.289990237
1.289974127
1.289967154
1.295335744
1.276030165
1.289541944
1.289606887
1.28957287
1.28956729
1.28960614
1.289672091
1.2896921
1.289701927
1.289747471
1.289815307
1.289863722
1.289917215
1.289972486
1.29000088
1.289990539
1.289967183
1.289932569
1.289917424
1.294679885
1.278835807
1.289587739
1.289632606
1.289613596
1.289574198
1.289581199
1.289652949
1.289695013
1.289713465
1.289756566
1.289815949
1.289833713
1.289850427
1.289916562
1.289988511
1.289991016
1.289942897
1.289881273
1.289851518
1.293994721
1.279715848
1.289627751
1.289661675
1.289643929
1.289592009
1.289567649
1.289623686
1.289686534
1.289733444
1.28977234
1.28981327
1.289820185
1.289821655
1.289876294
1.289945683
1.289958133
1.289911864
1.289846688
1.28981116
1.293233113
1.282874325
1.28967011
1.289680371
1.289659831
1.289627769
1.289594363
1.289615719
1.289677379
1.28973925
1.289769285
1.289792624
1.28981776
1.289837822
1.289857886
1.289878584
1.28989122
1.289876072
1.28983685
1.289810659
1.292430471
1.283608454
1.289684545
1.289686573
1.289667785
1.28967679
1.289653284
1.289644476
1.289682974
1.289731261
1.289739569
1.289755504
1.289807687
1.289863276
1.289854607
1.289814963
1.289817793
1.289838634
1.289839562
1.289830595
1.291647219
1.287109271
1.289470327
1.28968903
1.289301731
1.289677094
1.289284626
1.289633917
1.289343218
1.289678837
1.28951094
1.28972233
1.289708156
1.289879222
1.28981622
1.289823963
1.289765726
1.289851343
1.289825963
1.289847619
1.290816803
1.307870218
1.260742427
1.300334739
1.255221999
1.292478154
1.254135451
1.287917467
1.257632327
1.287779358
1.2645414
1.291335866
1.272912791
1.296342848
1.280393512
1.300318246
1.284823661
1.301459424
1.285281608
1.299569107
1.282944742
1.261892096
1.289476095
1.289822742
1.289855113
1.28994597
1.289924667
1.289902368
1.289948455
1.2899918
1.289941932
1.289886577
1.289909398
1.289983144
1.289998217
1.289930265
1.289858889
1.289847689
1.289846096
1.289951424
1.301028347
1.261896982
1.289458581
1.289850974
1.289870332
1.289919654
1.289910585
1.289912676
1.289946861
1.290000846
1.289991338
1.289955202
1.289941826
1.289979701
1.289996148
1.28997337
1.289934715
1.289916887
1.289884168
1.289962332
1.301059327
1.262107535
1.28940532
1.289848746
1.289860617
1.289868289
1.28988575
1.289914347
1.289915617
1.289961823
1.289999774
1.290002682
1.28996165
1.289950485
1.289963419
1.289987642
1.289988493
1.289958746
1.289893951
1.289941887
1.301304101
1.262112107
1.289362021
1.289832446
1.289846847
1.28983462
1.289883721
1.289932028
1.289891414
1.289901469
1.289969493
1.290023674
1.289985624
1.289932837
1.289938661
1.289993312
1.290012125
1.289970746
1.289889982
1.289926128
1.301360573
1.262695349
1.289369071
1.289813806
1.289830306
1.289820297
1.289873922
1.289935335
1.289882195
1.289852639
1.289919589
1.290010691
1.290002954
1.289945352
1.289943222
1.289996924
1.290009159
1.289959006
1.28988813
1.289940625
1.301802054
1.26290505
1.289408762
1.2897795
1.289800773
1.289813099
1.289844718
1.289911816
1.289888783
1.289843764
1.289881078
1.289970909
1.290000509
1.289978187
1.289975666
1.29000824
1.289998248
1.289944695
1.289897282
1.289968042
1.301803129
1.263991318
1.289464175
1.289727118
1.289753536
1.289788818
1.289790507
1.289864514
1.289901893
1.289880185
1.289870455
1.289929468
1.289978285
1.290000202
1.290007628
1.290027184
1.289998587
1.28994492
1.2899135
1.289986055
1.302166971
1.264396797
1.289474147
1.28967285
1.289698991
1.289747473
1.289729183
1.289799702
1.289884463
1.289915199
1.289879253
1.289898078
1.289951301
1.2899979
1.290019495
1.290038033
1.290007816
1.289962819
1.28992858
1.289982287
1.301917391
1.266058448
1.289466475
1.289656498
1.289665516
1.289709095
1.289695214
1.28973591
1.289827744
1.289905613
1.289878018
1.289888858
1.289934506
1.289989101
1.290023101
1.29003728
1.290015417
1.289981769
1.289935783
1.289961965
1.301926401
1.266663094
1.289448957
1.289683168
1.289659012
1.289678727
1.289690452
1.289692302
1.289756806
1.289852032
1.28987008
1.289891055
1.289932854
1.289992488
1.290032738
1.290033284
1.290004414
1.289978261
1.289935458
1.289945083
1.301303951
1.268939254
1.289479331
1.289709722
1.289655697
1.289644446
1.289686045
1.289684926
1.289713209
1.289788481
1.289847145
1.289890915
1.289929335
1.289992901
1.29004188
1.290025163
1.289978944
1.289957216
1.289931832
1.289946313
1.300887865
1.269669871
1.289501887
1.28969784
1.289637199
1.289602151
1.289655164
1.289707318
1.289720866
1.289749153
1.289816772
1.289875159
1.289912547
1.289968581
1.290022005
1.290012632
1.289960034
1.289935545
1.289924178
1.289955035
1.29995138
1.27265764
1.289537366
1.289649004
1.28962107
1.289577179
1.28961419
1.289732688
1.289753735
1.289733947
1.289778134
1.289849126
1.289887872
1.289921186
1.289973201
1.289998727
1.289964633
1.289926203
1.289904232
1.289935949
1.299154837
1.273469845
1.289535838
1.289608873
1.289625793
1.289593403
1.289588839
1.289710337
1.289751756
1.28972471
1.289756227
1.289838853
1.289868738
1.289872298
1.289915252
1.289982379
1.289979956
1.28992448
1.289871833
1.289889216
1.297947418
1.277034593
1.289561157
1.28960484
1.289654331
1.289641762
1.289593701
1.2896465
1.289710496
1.289729921
1.289766514
1.289847506
1.289867897
1.289844166
1.289870697
1.289955412
1.289984296
1.289921588
1.289838206
1.289829634
1.296838361
1.277789846
1.28958393
1.289631501
1.289672395
1.289684924
1.289630763
1.28960248
1.289667006
1.289743527
1.289790538
1.289845776
1.289864683
1.289850709
1.289859955
1.289911575
1.289947372
1.289905525
1.289825485
1.289800362
1.295522075
1.281807592
1.289641925
1.289663509
1.289662559
1.289693702
1.289682137
1.289625286
1.289654841
1.289751592
1.289798663
1.2898129
1.289836139
1.289870867
1.289878346
1.28986454
1.289878271
1.289873811
1.28983591
1.289816217
1.294250583
1.282372961
1.289684759
1.289686738
1.289641837
1.289681165
1.289716294
1.28970064
1.289694119
1.289758202
1.289773962
1.289739652
1.289779437
1.289875365
1.289890292
1.289824945
1.289808117
1.289839802
1.289853843
1.289848914
1.292932024
1.286834822
1.289420211
1.289692691
1.289144987
1.289627317
1.289213627
1.28971382
1.289337633
1.289713056
1.289528937
1.289687231
1.289662093
1.289861536
1.289873427
1.289861205
1.28981202
1.289864323
1.289868487
1.289865093
1.291621709
1.310876677
1.25589016
1.301992288
1.249523372
1.292642598
1.248944709
1.287279342
1.254368589
1.287252069
1.263868604
1.2915221
1.274849264
1.297355203
1.284411749
1.301745245
1.289826416
1.302299662
1.289748763
1.298867926
1.286044286
1.250041412
1.289327122
1.289816916
1.289870858
1.289973404
1.289958138
1.28991302
1.289883757
1.289896465
1.289944835
1.289910101
1.289758028
1.289728896
1.289834918
1.289907121
1.289840808
1.289736392
1.289682379
1.289869554
1.307795382
1.24995454
1.289269297
1.289900689
1.289930671
1.289958413
1.289947802
1.289920108
1.289890502
1.289930424
1.289968687
1.289931232
1.28980433
1.289769239
1.289832856
1.289887125
1.289858064
1.289798072
1.28976603
1.289940558
1.308030974
1.250011392
1.289168382
1.289924946
1.289941992
1.289897646
1.289908815
1.28992861
1.289896642
1.28991717
1.289922343
1.289909552
1.289849723
1.289809992
1.289809639
1.289836742
1.28984834
1.289837725
1.28982456
1.289980434
1.308468729
1.249882483
1.28909855
1.289890781
1.289907675
1.289832361
1.28987297
1.289963451
1.289933425
1.289887957
1.289844303
1.289867076
1.2899023
1.289868164
1.289805443
1.289804126
1.289837857
1.289851269
1.289843634
1.289989338
1.309002762
1.250306066
1.289133134
1.289842887
1.289874627
1.289829072
1.289843765
1.289962214
1.289973261
1.28986222
1.289766584
1.289823398
1.289940942
1.289918837
1.289818754
1.289796082
1.289833966
1.289846967
1.28983793
1.289972341
1.309654033
1.250498722
1.289246389
1.28980013
1.28984419
1.289869873
1.289821291
1.289917704
1.289992215
1.289883094
1.289747497
1.289795584
1.289928893
1.28993512
1.289833264
1.289811488
1.289851889
1.289851419
1.289830056
1.289941346
1.310189293
1.251623516
1.289365346
1.289753327
1.289798365
1.289866032
1.289782306
1.289835118
1.289976317
1.289962899
1.289808657
1.289791612
1.289881628
1.28992109
1.289842428
1.289835241
1.289889491
1.289883881
1.28984313
1.289923533
1.31056225
1.252232899
1.289377361
1.289703863
1.289735066
1.289809951
1.289746545
1.289746863
1.289902404
1.290014703
1.289887779
1.289867473
1.289846691
1.289894944
1.289844366
1.289844806
1.289911738
1.289921831
1.289874748
1.289921565
1.310682175
1.254171414
1.289312693
1.289688918
1.289695307
1.289753844
1.289746175
1.289704238
1.28981183
1.289948938
1.289895211
1.289840542
1.289839329
1.289871925
1.289851963
1.28985531
1.289913661
1.289935166
1.289897707
1.28992854
1.31038152
1.255283363
1.289225271
1.289733206
1.289704701
1.28971903
1.289766864
1.289727686
1.289745011
1.289806309
1.289838764
1.289864371
1.289857222
1.289879023
1.289891527
1.289888671
1.289905876
1.289914124
1.28989282
1.28992567
1.30977866
1.258248706
1.2892607
1.289792054
1.289743883
1.289685218
1.289750488
1.289792307
1.289741723
1.28969789
1.289787465
1.289865017
1.289866237
1.289898356
1.289944425
1.289938068
1.289905674
1.289877221
1.289861997
1.289908797
1.308642758
1.259791266
1.289358999
1.289781532
1.289761163
1.289646288
1.289672092
1.289810078
1.289780351
1.289696804
1.289770405
1.289848965
1.289863592
1.289890622
1.289950353
1.289970515
1.289916902
1.289853199
1.289828057
1.28988251
1.307317677
1.263913922
1.289484377
1.289691574
1.289745757
1.289627752
1.289580465
1.289762062
1.289827064
1.289772001
1.289771356
1.289831421
1.289865966
1.289873789
1.289907433
1.289957369
1.289929922
1.289856676
1.289811196
1.289857267
1.305534385
1.265709598
1.289520287
1.28960932
1.289712682
1.289672504
1.289564864
1.289667058
1.28979892
1.289825994
1.289776178
1.289816826
1.289887385
1.28987074
1.289845073
1.289902372
1.289924025
1.289874843
1.289819038
1.289851606
1.303734979
1.270584823
1.289541791
1.289599817
1.289688069
1.289765062
1.289640705
1.289568207
1.289707425
1.289813112
1.289776649
1.28982226
1.289914139
1.289897218
1.289817937
1.289840655
1.289901962
1.289890116
1.289836612
1.289858348
1.301530814
1.272240316
1.289533222
1.289640021
1.289659043
1.289802512
1.289754583
1.289577065
1.289627026
1.289749758
1.289782115
1.289828529
1.289897906
1.289914549
1.289849548
1.289827811
1.289872297
1.289876826
1.289846532
1.289869267
1.299585527
1.277788694
1.289608491
1.289682152
1.289631686
1.28974376
1.289824428
1.289703733
1.289616129
1.289699649
1.289791602
1.289826716
1.289831803
1.289884871
1.289910065
1.289872375
1.289840768
1.289831456
1.289834462
1.289868534
1.297149289
1.279146568
1.28969338
1.289718125
1.28963672
1.289633497
1.289794508
1.28985603
1.289699347
1.289693845
1.289813821
1.289803087
1.289729307
1.289805884
1.289926295
1.289915807
1.289823336
1.289784469
1.289808817
1.289850017
1.295210557
1.285331906
1.28933522
1.289704897
1.28893149
1.289465162
1.288968515
1.289784217
1.289196051
1.289629444
1.289501164
1.289757597
1.289569032
1.289746591
1.289893407
1.289984288
1.289888163
1.289833879
1.289807584
1.289810183
1.292740261
1.311601827
1.249690704
1.298299015
1.239820608
1.284256589
1.237951332
1.276726622
1.244764545
1.278918143
1.257539017
1.288132944
1.272271707
1.299122092
1.284936305
1.307735515
1.291591332
1.310036672
1.290051055
1.305175661
1.283685334
1.240425998
1.289047098
1.289812379
1.28993027
1.289939422
1.289887402
1.289982529
1.28989444
1.289757682
1.289872642
1.289887105
1.289632766
1.289534668
1.289648934
1.289845979
1.289835195
1.289650351
1.289548982
1.289820661
1.319834704
1.240209119
1.289033666
1.289957884
1.290029082
1.289963777
1.289934816
1.289974546
1.289907402
1.289806591
1.289817067
1.289837984
1.289691396
1.289570251
1.289617997
1.289754001
1.289765078
1.289691758
1.28965363
1.289928082
1.320175365
1.240191778
1.288990479
1.290001386
1.290026149
1.28992591
1.289934628
1.289939031
1.289907737
1.289845746
1.28973679
1.289737704
1.289754261
1.289653751
1.289611836
1.289641742
1.289662823
1.28970296
1.289737364
1.290002824
1.321231566
1.239694699
1.288954474
1.289919102
1.289912086
1.289869007
1.289894048
1.289892226
1.289945731
1.289947905
1.289698084
1.289625908
1.289824965
1.28981871
1.28968213
1.28957269
1.289596688
1.289706234
1.289788414
1.290024925
1.321992472
1.240102258
1.289018591
1.289808274
1.289817833
1.289892874
1.289876109
1.289845794
1.289960054
1.289999549
1.289714786
1.289572178
1.28979743
1.289918051
1.289763516
1.289581598
1.28958832
1.289701546
1.289792102
1.289981103
1.32353948
1.239959883
1.289113113
1.289754096
1.289789638
1.289980843
1.289875143
1.28978801
1.289919755
1.289995717
1.289801821
1.28959421
1.289636295
1.289858044
1.289800162
1.289669155
1.289653339
1.289725848
1.289772194
1.289900478
1.324104874
1.241266151
1.289207531
1.289757278
1.289789445
1.289977853
1.289866512
1.289695064
1.28981881
1.29001124
1.289924399
1.291057342
1.289564996
1.289764993
1.289773602
1.28971289
1.289728095
1.289778096
1.289776884
1.289842146
1.3252551
1.241663422
1.28916532
1.289780976
1.289768976
1.289883569
1.289855806
1.289625131
1.289721526
1.289992001
1.290127894
1.296923528
1.289666427
1.2896731
1.289731449
1.289696095
1.289753086
1.289818141
1.289809493
1.289836924
1.325038226
1.244118819
1.289075651
1.289783568
1.289748095
1.289789671
1.289844077
1.289653802
1.289666713
1.289865686
1.289979028
1.290285924
1.289692048
1.289679411
1.289704916
1.289692607
1.289751067
1.289832144
1.289840661
1.289856738
1.324965773
1.245189804
1.288962675
1.28977764
1.289759566
1.289745949
1.289819145
1.289768353
1.289688302
1.289659326
1.289782737
1.289884333
1.289736583
1.28971047
1.289735744
1.28973901
1.289760123
1.289820168
1.289842665
1.289864204
1.32353075
1.249182826
1.289058358
1.289797429
1.289812769
1.289727767
1.289756781
1.289873441
1.289781605
1.289584939
1.289647652
1.289796764
1.289752438
1.289784661
1.289812268
1.289810631
1.289792763
1.289798927
1.289811721
1.289837553
1.321908995
1.25089595
1.289238562
1.289769761
1.289845056
1.289726893
1.289669815
1.289835406
1.289854772
1.289706263
1.28965125
1.289692261
1.289774936
1.289865684
1.289879312
1.289861015
1.289827063
1.289786579
1.289772067
1.289798148
1.319340381
1.256608422
1.289473655
1.289676713
1.289810708
1.289742862
1.28960449
1.289662182
1.289826696
1.289929604
1.289788823
1.289654904
1.28979146
1.289904302
1.289891211
1.289857046
1.289837604
1.289795253
1.289765885
1.289789478
1.316456445
1.258478726
1.289527533
1.289636047
1.289719155
1.28978307
1.289657384
1.289520601
1.289722297
1.290013424
1.28989202
1.289695013
1.289811563
1.289891107
1.289836188
1.289799245
1.289813866
1.289816919
1.289804234
1.289834004
1.313226081
1.265248975
1.289546886
1.289681773
1.289632228
1.289838139
1.289815469
1.289515489
1.289595417
1.289871741
1.289867913
1.28978414
1.289854578
1.289884125
1.289799769
1.289745396
1.289782453
1.289835547
1.289850704
1.289897166
1.309536778
1.266853861
1.289459611
1.289730743
1.289607089
1.289829614
1.28990471
1.289663244
1.289557123
1.289649359
1.289766252
1.289850019
1.289875266
1.289877502
1.289812045
1.289766059
1.289783137
1.289830709
1.289859277
1.289919149
1.306149186
1.274620258
1.289545952
1.289743358
1.289649928
1.289733769
1.289863961
1.289865052
1.289658532
1.289526029
1.28968503
1.289879994
1.289861137
1.289830965
1.289844297
1.289855629
1.28981898
1.289798934
1.289815425
1.289865355
1.302088353
1.27584582
1.289679163
1.289747864
1.289746309
1.289604113
1.289704547
1.289996989
1.289836014
1.289586044
1.289701726
1.289867907
1.28980792
1.289752018
1.289854363
1.289938966
1.289855857
1.289758648
1.289751099
1.289778534
1.298799978
1.28448255
1.289093965
1.289709802
1.28870979
1.289436588
1.288379098
1.289783316
1.289189952
1.289639602
1.289395532
1.289782046
1.289696434
1.2897452
1.289913936
1.290041924
1.290006938
1.289835388
1.289787984
1.289721556
1.294739546
1.3175862
1.238633655
1.300876388
1.226180406
1.282952278
1.225225687
1.273243248
1.236755481
1.276110594
1.255750221
1.287580268
1.276729418
1.301452307
1.294713972
1.312083117
1.304361187
1.313270061
1.301267546
1.304154188
1.29109391
1.218238961
1.288176901
1.289766056
1.289899988
1.289956808
1.28970828
1.289941469
1.290221327
1.289953291
1.2893598
1.289382463
1.289878162
1.289877694
1.289355875
1.289222642
1.289606267
1.289719175
1.289658706
1.289858079
1.338334489
1.217749851
1.288258217
1.289970992
1.290100399
1.289954893
1.28987224
1.289957328
1.290007536
1.289837603
1.289563268
1.289487551
1.289685549
1.289715236
1.289494206
1.289425113
1.289563251
1.289641103
1.289646201
1.289907233
1.339337898
1.217244987
1.288301003
1.290025593
1.29012263
1.289939755
1.289984646
1.289862312
1.289741561
1.289746499
1.289801825
1.289600616
1.289417053
1.289491515
1.289652237
1.289637784
1.289491844
1.289533395
1.289633612
1.289927956
1.341371014
1.216136251
1.288302344
1.289889488
1.289929866
1.289961999
1.290034048
1.289728364
1.28956629
1.289785793
1.290035281
1.289747429
1.289212295
1.289311636
1.289769572
1.289774644
1.289451136
1.289467491
1.289657723
1.289935861
1.343863625
1.215753486
1.288335265
1.289728529
1.289734961
1.290039516
1.290116527
1.289677998
1.289459541
1.289817009
1.290155914
1.289968628
1.289186551
1.289263255
1.289835506
1.289842785
1.289445619
1.289461208
1.289686973
1.289896815
1.346797551
1.215104233
1.288331599
1.289702105
1.289702362
1.290045711
1.290138194
1.289687753
1.289331336
1.28974638
1.290216541
1.292992303
1.289249954
1.289284362
1.289831874
1.289862791
1.289486196
1.289510465
1.289700811
1.289806497
1.349244371
1.215985859
1.288313855
1.289810961
1.289799169
1.289936379
1.290076173
1.289718763
1.289220714
1.28960566
1.292363886
1.348337584
1.29025104
1.289311682
1.289775899
1.289859779
1.289553361
1.28958082
1.289715604
1.289725075
1.351153018
1.216433652
1.288228118
1.289916469
1.289881724
1.289798497
1.289992896
1.289786138
1.289233697
1.28954627
1.297491726
1.432402915
1.29641063
1.289445561
1.289735443
1.289843066
1.28958808
1.289622269
1.289733841
1.289682619
1.351967679
1.219282035
1.28821384
1.289915436
1.289893662
1.289731809
1.289908683
1.289875358
1.289401031
1.289363079
1.290638838
1.320353535
1.290202869
1.289449208
1.289720106
1.289805686
1.289592462
1.289638811
1.289755637
1.289688851
1.351406108
1.221294454
1.288226163
1.289794129
1.289875008
1.289756447
1.28982432
1.289923139
1.28962886
1.289388798
1.289633463
1.291045046
1.289765277
1.289495477
1.289699771
1.289783335
1.289610516
1.289654652
1.289773969
1.289701875
1.3495672
1.226841715
1.288508023
1.289661718
1.289864392
1.289812267
1.289745488
1.28986708
1.28979213
1.289544089
1.289562816
1.289838033
1.289672119
1.289532616
1.289690847
1.289786451
1.289667246
1.28968554
1.28978376
1.289715323
1.346044618
1.230140375
1.288820916
1.289613582
1.289838661
1.289857604
1.289706957
1.289706142
1.289788622
1.289750889
1.289686879
1.28968201
1.289623991
1.289607943
1.289717586
1.289793257
1.289729032
1.289725668
1.289789656
1.289711942
1.341625045
1.238341346
1.289173491
1.289616162
1.289762686
1.289900052
1.289770479
1.289507689
1.289628619
1.289933961
1.289897458
1.28962867
1.28958325
1.289722897
1.289818015
1.289804017
1.289755476
1.289759798
1.289805721
1.289740381
1.335799398
1.242129711
1.289243563
1.289733944
1.289643082
1.289828429
1.289910246
1.289510615
1.289467939
1.289965863
1.290040979
1.28963177
1.289564604
1.289848268
1.289945366
1.289786636
1.289717075
1.289771017
1.289833939
1.289791877
1.329950119
1.251835264
1.289324298
1.289897881
1.289543407
1.289663656
1.290062695
1.289748779
1.289440845
1.289799829
1.289991533
1.28970977
1.289648728
1.289928014
1.28997471
1.289746093
1.289669711
1.289770895
1.289853627
1.289854927
1.323017656
1.255308762
1.289206139
1.289924192
1.289577794
1.289598536
1.290004162
1.289977034
1.289610236
1.289574326
1.289760769
1.289785751
1.289791148
1.289936552
1.289890233
1.289722113
1.289682628
1.289771589
1.28983899
1.289859995
1.317187409
1.266606166
1.289375578
1.289798049
1.289755864
1.289670832
1.289760515
1.289987416
1.289860364
1.289500048
1.289548256
1.289846572
1.289945478
1.289852951
1.289726342
1.28974013
1.289781024
1.289797719
1.289792159
1.289786773
1.309974008
1.269279457
1.289631137
1.289698233
1.289925211
1.289774366
1.289420412
1.289813347
1.290015162
1.289622372
1.289482648
1.289885813
1.290057403
1.289750161
1.289574132
1.289779563
1.289894696
1.289817635
1.289746186
1.289685521
1.304742903
1.281643777
1.288757987
1.289581633
1.288111044
1.28951318
1.287124057
1.289008508
1.288666939
1.289491562
1.288989604
1.289802458
1.289973683
1.289838166
1.289720986
1.289936978
1.290126778
1.289885022
1.289839488
1.289633758
1.297690115
1.319363862
1.225919329
1.29416469
1.20647495
1.266271255
1.203189828
1.250810951
1.218695092
1.258836237
1.245484684
1.280681836
1.274446488
1.305534243
1.299308765
1.325953691
1.312070166
1.331559784
1.304651213
1.318223749
1.28744577
1.198312435
1.287271368
1.289706092
1.28965497
1.29031377
1.290080535
1.289513331
1.289864677
1.289948027
1.289338289
1.289272685
1.289701742
1.289610633
1.289176428
1.288953898
1.289264598
1.289752544
1.289833133
1.289825209
1.363638598
1.197097634
1.28734218
1.289875938
1.290032731
1.289988662
1.289950205
1.289728844
1.289834741
1.289940249
1.289611372
1.289377414
1.289534643
1.289593506
1.289404059
1.289219284
1.289352112
1.289574166
1.289692772
1.289813398
1.365364847
1.196092677
1.287357796
1.289916802
1.290208945
1.289829114
1.289910047
1.289947136
1.289787718
1.289870588
1.289825915
1.289491987
1.289292182