/*--------------------------------*- C++ -*----------------------------------*\
| =========                 |                                                 |
| \\      /  F ield         | OpenFOAM: The Open Source CFD Toolbox           |
|  \\    /   O peration     | Version:  5.x                                   |
|   \\  /    A nd           | Web:      www.OpenFOAM.org                      |
|    \\/     M anipulation  |                                                 |
\*---------------------------------------------------------------------------*/
FoamFile
{
    version     2.0;
    format      ascii;
    class       volScalarField;
    location    "6.8";
    object      T;
}
// * * * * * * * * * * * * * * * * * * * * * * * * * * * * * * * * * * * * * //

dimensions      [0 0 0 1 0 0 0];

internalField   nonuniform List<scalar> 
30538
(
277.3813058
273.0591142
273.0073712
273.0082417
273.0086862
273.0115151
273.019246
273.0228842
273.0235962
273.0257879
273.0335001
273.0403792
273.0419538
273.0400864
273.038487
273.0360941
273.033653
273.0310735
273.0112878
271.9105325
277.378398
273.0563369
272.9994687
272.9997526
273.0039907
273.0084936
273.0153792
273.0186978
273.0201537
273.0217913
273.0269356
273.0329255
273.0359024
273.0357277
273.0346135
273.0323264
273.0287553
273.0235419
273.0013892
271.9044063
277.3374922
273.0575968
272.9966717
272.9962171
273.0035478
273.0087536
273.0143788
273.0175024
273.0209458
273.02278
273.0257179
273.0302803
273.034256
273.0355512
273.035315
273.0337729
273.0297441
273.0214249
272.996384
271.887805
277.3216836
273.0563027
272.994951
272.994156
273.0025579
273.0073662
273.0109089
273.0137574
273.0190881
273.0223064
273.0247781
273.0288251
273.0333126
273.0349656
273.0348708
273.0342984
273.0311007
273.0212729
272.9944222
271.8919214
277.2041438
273.0497503
272.9940302
272.9932951
272.9998167
273.0038159
273.0060202
273.0087453
273.0151646
273.0200802
273.0239719
273.0286877
273.0335408
273.0350006
273.03392
273.0333777
273.0311177
273.0221678
272.996024
271.8684086
277.1462329
273.0416654
272.9930973
272.9930231
272.9963326
272.9995587
273.0018806
273.0044127
273.0103177
273.0158743
273.0219894
273.0287032
273.0346192
273.0361939
273.0335938
273.0310207
273.0284145
273.0220662
273.0003138
271.8901699
276.946215
273.0336411
272.992193
272.992911
272.9937001
272.9963035
273.0000388
273.0023494
273.005827
273.0110225
273.018714
273.0274537
273.0351518
273.038049
273.034686
273.0287466
273.0240902
273.020209
273.0035891
271.8704072
276.8670495
273.0313168
272.9915057
272.9921371
272.9920494
272.9942278
272.9998587
273.0020426
273.0029566
273.0068921
273.0148634
273.0248972
273.0341298
273.0390755
273.0368505
273.0282403
273.0207481
273.017807
273.005298
271.9036131
276.5939621
273.0304438
272.9904012
272.989637
272.9895335
272.9916147
272.9985366
273.0013945
273.0022262
273.0048366
273.0118722
273.0220715
273.0316479
273.0380051
273.0378832
273.0294754
273.0208855
273.0172862
273.0058295
271.8973989
276.4926764
273.0306815
272.9878595
272.9849964
272.9858114
272.9882956
272.9945356
272.9990317
273.0024371
273.0040356
273.0098988
273.0197655
273.0290919
273.0350473
273.0360335
273.0306988
273.0239778
273.0195323
273.0067857
271.9612613
276.1339476
273.0254391
272.984645
272.9805194
272.9829653
272.9858447
272.989637
272.995155
273.0009434
273.0027669
273.0082221
273.0181922
273.0274677
273.0315391
273.031462
273.0300113
273.027623
273.0232728
273.0085366
271.990393
276.01018
273.0199833
272.982987
272.978618
272.9831206
272.9856685
272.9869622
272.9915056
272.9971474
273.0001977
273.0057889
273.0163227
273.0263453
273.0292097
273.0267983
273.0274394
273.0285726
273.0259031
273.0107079
272.0844207
275.5602428
273.0124031
272.9839748
272.9802243
272.984333
272.9870091
272.9874129
272.9897324
272.993955
272.9976079
273.0032635
273.0136669
273.0244748
273.0276071
273.0246007
273.0248345
273.027475
273.0260431
273.0119627
272.1407724
275.4325962
273.0097402
272.9867351
272.9829205
272.9839208
272.9867916
272.9888955
272.9904105
272.9936485
272.9969296
273.001833
273.0100125
273.0202645
273.0257275
273.024888
273.0238921
273.0249166
273.0234968
273.0111033
272.2566929
274.9137314
273.0068349
272.9899812
272.9851361
272.9820787
272.9845372
272.9897439
272.9929405
272.9955983
272.9985452
273.0018044
273.0061908
273.0144212
273.0225746
273.0258193
273.0237095
273.0218315
273.0191069
273.0087422
272.3373172
274.7947067
273.0062658
272.9923804
272.9867356
272.9813115
272.9824478
272.9893016
272.9940265
272.9972103
273.0001911
273.0029304
273.0047564
273.0097263
273.0184483
273.0240733
273.0218978
273.0180564
273.0144177
273.0064069
272.4702947
274.209678
273.0023794
272.9936441
272.9893668
272.9845029
272.9837314
272.988704
272.9932735
272.9967528
273.0002191
273.0039383
273.0061554
273.0088586
273.0143682
273.0186217
273.0173972
273.0137837
273.0107226
273.0057882
272.5822268
274.1050769
273.0000502
272.9945063
272.993622
272.9910307
272.9895984
272.9896238
272.9930249
272.9948216
272.9985502
273.0044354
273.0084974
273.0105471
273.0113183
273.0116489
273.0108998
273.0093026
273.0078974
273.0058467
272.7240491
273.4579378
273.0416306
272.9967825
273.0694677
273.0035534
273.0769687
273.0028312
273.0594092
273.000978
273.036434
273.0054014
273.0286697
273.0090728
273.0155246
272.9975851
273.0055002
272.9961473
273.0066721
273.0028922
272.8444375
269.2535282
278.8755971
270.5368618
279.8671026
271.9112458
280.0069195
272.7440624
279.301828
272.9064553
277.9840527
272.459674
276.3992886
271.722636
274.9570947
271.1114749
274.0659843
270.9660689
273.913515
271.3123936
274.2904816
278.2069222
273.0723989
273.0081662
273.0095111
273.012114
273.0122045
273.016769
273.0214481
273.0232683
273.0226588
273.0261286
273.0324618
273.0358806
273.0336302
273.028547
273.02507
273.0254191
273.0249728
273.0010129
271.595603
278.2034598
273.0678677
273.0009784
273.0014625
273.0051763
273.0069365
273.0119694
273.0161398
273.0191649
273.0196279
273.0220322
273.0263107
273.0291425
273.0282953
273.025517
273.0230483
273.021746
273.0182232
272.9926163
271.5825836
278.1630421
273.0668567
272.9989485
272.9986258
273.0034062
273.0068234
273.0113521
273.0140549
273.0183206
273.0211489
273.0230747
273.0248058
273.026547
273.0271606
273.0271678
273.0262085
273.0232397
273.0164198
272.9887947
271.5602827
278.1427667
273.0644653
272.9975174
272.9969872
273.0022201
273.006899
273.0100492
273.010451
273.0153121
273.0203883
273.0233515
273.0239448
273.0247652
273.0261123
273.0277121
273.0276317
273.0238978
273.0155546
272.9876953
271.5437986
278.0282826
273.059049
272.9967215
272.9962192
273.0006687
273.0055055
273.007805
273.0068408
273.0113279
273.0177339
273.0224251
273.0236357
273.0245001
273.0261448
273.0276754
273.0270108
273.0233014
273.0160329
272.9901578
271.5148874
277.9640787
273.0533289
272.9952042
272.9951984
272.9984846
273.0026244
273.0051643
273.0048142
273.0079
273.0140219
273.0199571
273.023113
273.0253087
273.0275658
273.0280489
273.0252078
273.0214125
273.0167302
272.9948075
271.5077436
277.7602132
273.0469924
272.9928433
272.9935698
272.9961932
272.9990949
273.0031153
273.004631
273.0061766
273.0103666
273.0165471
273.0217893
273.026231
273.029559
273.0291907
273.0238906
273.0193541
273.0167689
272.9983127
271.4912248
277.6559699
273.0436731
272.9904885
272.9916301
272.9938609
272.9954092
273.0010649
273.0046786
273.0057061
273.0075377
273.0129839
273.0196778
273.0260297
273.0306251
273.0305107
273.0239905
273.0182573
273.0160661
272.999845
271.5032136
277.3573427
273.0400487
272.9893345
272.9894203
272.9911871
272.9920408
272.9977824
273.0028651
273.0057085
273.0061722
273.0104376
273.0176139
273.0249414
273.0303877
273.0307925
273.0247785
273.0190809
273.015937
272.9997362
271.5154439
277.2129481
273.0382063
272.9891523
272.9867383
272.9881152
272.9894274
272.9932985
272.9989886
273.004602
273.0056104
273.0090388
273.0162187
273.0240704
273.029253
273.0291709
273.0248234
273.0208842
273.0172165
273.0004298
271.5704116
276.8092628
273.0322917
272.9882233
272.9837837
272.9853569
272.9880391
272.9896452
272.9947625
273.0017553
273.0041017
273.0078408
273.0150285
273.0236015
273.027696
273.0261489
273.0235128
273.022401
273.0197772
273.0030511
271.6357712
276.6317644
273.0264491
272.9867277
272.9815487
272.9838977
272.9876649
272.9891018
272.9921987
272.9975802
273.0012638
273.0058212
273.0131687
273.0220586
273.0258906
273.0234132
273.0217731
273.0226338
273.0215581
273.0061352
271.7398199
276.1165335
273.017581
272.9857755
272.9815556
272.9835524
272.9878416
272.9908819
272.9918458
272.9938095
272.9980697
273.0038236
273.0107714
273.0187598
273.0232301
273.022435
273.0212405
273.0220477
273.0210433
273.0074944
271.846103
275.9239637
273.0124696
272.9863204
272.983626
272.983363
272.9864574
272.9913374
272.9922121
272.9925923
272.9966777
273.0031554
273.0083985
273.0140224
273.0196098
273.0226177
273.0222214
273.0207797
273.0180514
273.0054546
271.9778728
275.3231434
273.0069562
272.9882731
272.9868313
272.9836532
272.9840413
272.989528
272.9924761
272.993871
272.9979976
273.0040063
273.00676
273.0092888
273.0156999
273.0222603
273.0227457
273.0190285
273.0138377
273.0022265
272.1133667
275.1386242
273.0052604
272.9905514
272.9891884
272.9849291
272.9826523
272.9869475
272.9918866
272.9959465
272.9998723
273.0044143
273.0062328
273.0073645
273.0126355
273.0187943
273.0199346
273.0162599
273.0106676
273.000508
272.2689244
274.461201
273.0011623
272.9920369
272.9903872
272.9877991
272.9848078
272.9863005
272.9913291
272.9968317
273.0000541
273.0030527
273.0062744
273.0088526
273.0110177
273.0128838
273.0139156
273.012791
273.0093429
273.0024788
272.4397063
274.3017437
272.9993614
272.9926415
272.9920319
272.9920394
272.9910683
272.9890424
272.9929999
272.9965849
272.9981947
273.0000205
273.0054358
273.0107281
273.010296
273.0068919
273.0069967
273.0088947
273.00883
273.0052819
272.6097683
273.5544765
273.0467942
272.9959798
273.0749508
273.0056725
273.0901426
273.0084408
273.0697486
273.0054216
273.0400513
272.999959
273.0233695
273.0077533
273.0154945
272.9933586
273.0015367
272.9944874
273.0077515
273.0037015
272.7873175
269.2143953
279.2775634
270.7709795
280.5067023
272.4244648
280.7518915
273.3859762
279.9666794
273.4124482
278.439574
272.6617536
276.6204392
271.631616
275.0085645
270.7840456
274.0465287
270.5489687
273.9616926
270.9522546
274.4558274
279.0413027
273.0927207
273.0099762
273.0115186
273.0188656
273.0169571
273.0152914
273.0200087
273.0247368
273.0214883
273.0174345
273.0198422
273.0255491
273.025917
273.0192143
273.0129585
273.013508
273.0148893
272.986529
270.6492847
279.0359047
273.0836789
273.005599
273.0061072
273.0099783
273.0092437
273.0096492
273.0132604
273.0188059
273.018946
273.0164053
273.0156109
273.0181478
273.0185712
273.015759
273.0123718
273.0123166
273.0109417
272.9809174
270.6378661
278.9822381
273.0766867
273.00546
273.0054716
273.0059256
273.0076223
273.0103362
273.01104
273.0157244
273.0197123
273.0202752
273.0168864
273.0151325
273.0151902
273.0164185
273.0165213
273.0154482
273.0112918
272.9799349
270.5813905
278.9744108
273.0711299
273.0042208
273.0045794
273.0035304
273.0081128
273.0125831
273.0095712
273.0109127
273.0171314
273.0217623
273.0183832
273.0129933
273.0124002
273.0163247
273.0180891
273.0159993
273.010433
272.9801814
270.567609
278.8431052
273.066881
273.0028196
273.0035207
273.0028395
273.0080039
273.0136545
273.0094222
273.0071122
273.0128516
273.020319
273.019219
273.0133582
273.012147
273.0161646
273.0175103
273.0145925
273.0098494
272.9827855
270.4806251
278.802166
273.067388
273.0001683
273.0014088
273.0028261
273.0062495
273.0124307
273.0106068
273.0066874
273.0095179
273.0165165
273.0183759
273.0155235
273.0144323
273.0168853
273.0164651
273.0131527
273.0103771
272.9874178
270.489691
278.5690352
273.0652456
272.9959918
272.9978527
273.0013636
273.0023128
273.0090479
273.012242
273.0099775
273.0085119
273.0126754
273.0159337
273.016919
273.0168583
273.0184425
273.0166021
273.0131658
273.011652
272.9910187
270.4201445
278.4816635
273.0622331
272.9917178
272.9937342
272.9984331
272.9976762
273.0040072
273.0110902
273.0130535
273.0090799
273.0095854
273.0132572
273.0164083
273.0177978
273.0195328
273.0176951
273.0149302
273.0129763
272.9932245
270.4719284
278.1122592
273.0525439
272.9906436
272.9914153
272.9956874
272.9952349
272.9988197
273.0063385
273.0121071
273.0087423
273.0085698
273.0115894
273.0155736
273.0182224
273.0197418
273.0187837
273.0169359
273.0138157
272.9935038
270.4657352
277.9737915
273.0466279
272.9932754
272.9913208
272.9935031
272.9950929
272.9951784
273.00016
273.0073456
273.0078586
273.0086402
273.01149
273.0160794
273.019407
273.0199138
273.0184636
273.0172744
273.0142638
272.9940428
270.5917154
277.4690413
273.0380773
272.9957835
272.9913753
272.9908031
272.9947244
272.9943368
272.9960723
273.0015757
273.0057373
273.0086871
273.0114828
273.0165952
273.0207931
273.0199318
273.0171005
273.0163578
273.0147387
272.99639
270.6792065
277.3081491
273.0345578
272.9950034
272.9900149
272.9872602
272.991864
272.9958032
272.9961952
272.9978539
273.0030346
273.0075308
273.0105242
273.0151806
273.019875
273.0196897
273.0163822
273.0154847
273.0150705
272.9995045
270.8781429
276.65835
273.0251763
272.9909508
272.9887582
272.9850506
272.9879567
272.9973536
272.9984316
272.9962171
272.9997149
273.0056463
273.0090215
273.011893
273.0165248
273.0193289
273.0176153
273.0156229
273.014344
273.0007186
271.0443751
276.4843881
273.019599
272.987609
272.9892201
272.9862733
272.9853457
272.9948621
272.9977727
272.9951714
272.9979154
273.005165
273.0080272
273.0084747
273.0123316
273.018629
273.0195805
273.0161879
273.0123224
272.9992928
271.2905115
275.7134661
273.0096372
272.987263
272.991611
272.9901885
272.9853613
272.9889683
272.9939023
272.9954881
272.998941
273.0063229
273.0085147
273.0066997
273.0090617
273.016733
273.0202157
273.0162276
273.0097434
272.9971887
271.5127625
275.5496319
273.0065634
272.9894714
272.9929888
272.9936125
272.9882072
272.9849536
272.990053
272.9966787
273.001209
273.0065276
273.008661
273.0076416
273.0084081
273.0130756
273.0169668
273.0146972
273.0085069
272.9969572
271.7840175
274.6827808
273.0013577
272.9920049
272.9918877
272.9940837
272.9923999
272.9868586
272.9891145
272.9976038
273.0022049
273.0040341
273.006497
273.0095935
273.0101356
273.0090679
273.010858
273.0115851
273.0089334
273.0011108
272.0544629
274.5626884
273.0019674
272.9937474
272.9911553
272.9928893
272.9968188
272.9935645
272.9938165
272.9985733
273.0007619
272.9980166
273.0018879
273.0100821
273.0112215
273.005669
273.004595
273.0081691
273.0097775
273.005659
272.3394885
273.6165964
273.0673304
272.9979156
273.0957109
273.0019074
273.1140209
273.015263
273.0842219
273.0073092
273.0414595
272.9956622
273.0125146
273.0039709
273.0101705
272.9927543
272.9925921
272.9931899
273.0031585
273.0035564
272.6191525
268.6021126
280.3613903
270.4278162
281.7788862
272.3771382
281.9242437
273.5360319
280.6999912
273.5285563
278.5889954
272.6153837
276.1899304
271.4122037
274.1533768
270.4939147
272.9844181
270.3759349
273.0153437
271.0996254
273.7970199
281.701036
273.149237
273.0113983
273.0143596
273.0226099
273.0213486
273.0178083
273.0161439
273.0182468
273.0233304
273.0208828
273.0077883
273.0037266
273.0107714
273.0159252
273.0108249
273.0040446
273.0010566
272.9654643
269.2355957
281.7072859
273.1364444
273.0117399
273.0127904
273.0146639
273.013899
273.0117901
273.0100109
273.0144876
273.0187458
273.0159275
273.0048182
273.0001149
273.0034733
273.0071188
273.005259
273.0021927
273.0009275
272.9649108
269.1913785
281.6766837
273.1257093
273.0137866
273.013884
273.0097818
273.0109965
273.012937
273.0109281
273.0136618
273.0149527
273.0139635
273.0083496
273.0031543
273.0010717
273.0024219
273.0040493
273.0050859
273.0054407
272.9700934
269.1058868
281.6923696
273.1179607
273.0108938
273.0110905
273.0046265
273.0085239
273.0165684
273.0146624
273.0115731
273.0084199
273.0101504
273.0123258
273.0075377
273.0002169
272.9992691
273.0027975
273.0056931
273.0065123
272.9733861
268.9973586
281.5993564
273.115143
273.0068184
273.0084193
273.0047857
273.0067316
273.017257
273.0187796
273.0097764
273.0018681
273.006142
273.0150286
273.0112173
273.0008634
272.9982887
273.0021981
273.0048475
273.0055175
272.9748375
268.8635318
281.5733738
273.1203318
273.0032196
273.0059793
273.0087408
273.0055465
273.0143236
273.0211462
273.0119931
273.0002926
273.0035232
273.0133943
273.0119908
273.0016934
272.9994735
273.003651
273.0049533
273.0044536
272.9761833
268.7529572
281.3404741
273.1218706
272.9993138
273.0023112
273.0089079
273.0029286
273.0080657
273.0204556
273.0191247
273.0054989
273.0000575
273.0088244
273.0102786
273.0022634
273.0015086
273.0069913
273.0076523
273.0052757
272.9784075
268.6752288
281.206998
273.1164031
272.9952826
272.99727
273.0046476
273.0005108
273.0011504
273.0146189
273.0237588
273.0120461
272.9899899
273.0053842
273.0077127
273.0023362
273.0024818
273.0091661
273.0109903
273.0078458
272.9819227
268.6513638
280.7538691
273.097351
272.9941655
272.9942952
273.0003696
273.0010033
272.9978743
273.0070648
273.0180958
273.0124978
273.0058634
273.0043748
273.0055249
273.0030028
273.0036109
273.0097351
273.0124302
273.0099152
272.9848415
268.713252
280.4797408
273.0812416
272.9982053
272.9955287
272.9977938
273.0030402
273.0000031
273.0012859
273.0057297
273.0073825
273.0080626
273.0057149
273.0061702
273.0065563
273.0068714
273.0096827
273.0112285
273.0098841
272.9872505
268.8360583
279.8070363
273.0664701
273.0034014
272.999233
272.9950989
273.0015994
273.0052814
273.0006107
272.9960946
273.0027237
273.0079269
273.0065041
273.0079953
273.0114391
273.0116789
273.0104871
273.0089915
273.0079837
272.9882804
269.0679148
279.4757133
273.0635403
273.0027029
273.0009339
272.9917045
272.9945012
273.006167
273.0032422
272.9954934
273.0009531
273.0064796
273.0064358
273.0076675
273.0124633
273.0151858
273.0124184
273.0080794
273.006184
272.988907
269.3395738
278.5849203
273.0537557
272.9951405
272.9997483
272.9898142
272.9859152
273.0011509
273.0064273
273.0013379
273.000745
273.0049331
273.0068769
273.006628
273.0093647
273.0147421
273.0144203
273.0094923
273.0059243
272.989695
269.7073451
278.2001081
273.0459246
272.9883223
272.9970218
272.9932476
272.9838
272.9921348
273.0031967
273.0053999
273.0008741
273.0037062
273.0089868
273.0068239
273.0045527
273.010557
273.0145074
273.0118535
273.0075076
272.9918989
270.0812224
277.1246756
273.0274516
272.9875821
272.9948711
273.0007485
272.9895754
272.9829418
272.99472
273.0038323
273.0006931
273.0042417
273.0115606
273.0095273
273.0025804
273.0055251
273.012752
273.0134796
273.0093991
272.9955073
270.5404334
276.74682
273.0171984
272.9909715
272.9922175
273.0035663
272.9987543
272.9832076
272.9874728
272.9981487
273.0010724
273.0049296
273.0105449
273.0114336
273.005596
273.0044939
273.0100689
273.0122065
273.0101972
272.9991772
270.9476018
275.5356355
273.0069383
272.9942826
272.9895479
272.9982023
273.004388
272.9938057
272.9864288
272.9938702
273.0019489
273.0050078
273.0052706
273.0093374
273.0111482
273.0084234
273.007203
273.0079347
273.0087651
273.0028268
271.4573931
275.2539178
273.0086463
272.9969438
272.9918461
272.9887246
273.0043729
273.0071581
272.9953594
272.9936538
273.0046148
273.0032241
272.9969667
273.0030121
273.0129526
273.0124501
273.0055623
273.0034918
273.0059392
273.0038604
271.862792
273.9511201
273.0983931
273.0049535
273.1468474
273.0062469
273.1707321
273.0475494
273.1293052
273.0155212
273.0662601
273.004707
273.0110889
272.9905052
273.0067208
272.9973714
272.9909986
272.9872346
272.9955828
272.9980147
272.3779932
268.4683291
281.75916
271.2010237
283.9854001
274.1391844
284.4286087
275.8179267
282.8736163
275.3078578
279.9984867
273.3440264
276.7365842
271.0193716
274.0417318
269.2723444
272.6212663
268.7747888
272.938719
269.775905
274.2971218
283.8847964
273.1921541
273.0125219
273.0202811
273.021195
273.0175198
273.0262569
273.019666
273.0087156
273.0192373
273.020476
272.9976906
272.9868301
272.9942626
273.0113418
273.0125531
272.9988468
272.9910135
272.9440559
266.7721321
283.9217092
273.1839174
273.018163
273.0221024
273.0165611
273.0149148
273.018893
273.0141158
273.0064467
273.0080841
273.0096705
272.9958307
272.9829341
272.9846962
272.9964401
272.9994004
272.9951432
272.9924403
272.9465567
266.7121993
283.9099795
273.1781281
273.0218949
273.0220296
273.0136115
273.0151888
273.0161492
273.0145438
273.0102255
273.0015429
273.0010305
273.0008739
272.9897251
272.9838988
272.9864696
272.9900716
272.9953557
272.9989854
272.9565043
266.5086955
284.0131095
273.1755622
273.0149591
273.0124895
273.0091653
273.0122316
273.012692
273.0182802
273.0193765
272.9984538
272.9913833
273.0063998
273.0032577
272.989483
272.9801467
272.9837784
272.9947631
273.0026256
272.9639675
266.3571745
283.9261812
273.1736078
273.0055187
273.0046303
273.0116696
273.0113553
273.0094141
273.0201015
273.0242067
273.0000484
272.9865297
273.0033729
273.0109572
272.9959477
272.9805032
272.9824817
272.9934943
273.002218
272.9669584
266.041022
283.978185
273.1793985
273.0009748
273.002365
273.0197116
273.011996
273.005299
273.0172814
273.0241991
273.0074819
272.9811558
272.9890663
273.0051989
272.9986872
272.9876846
272.9875859
272.9948537
272.9998382
272.9675219
265.9175124
283.7012274
273.1756448
273.0012501
273.0025357
273.0199567
273.0119273
272.9980602
273.0091851
273.0257813
273.014027
272.692126
272.9814346
272.9967383
272.9960622
272.9911982
272.9937182
272.9988207
272.999682
272.9701728
265.6811479
283.6080529
273.1668325
273.0034157
273.0010933
273.0124717
273.011643
272.9926214
273.001182
273.0239528
273.0055
271.5039038
272.9710283
272.9883459
272.9921768
272.9897373
272.9958384
273.0020729
273.0021684
272.9759213
265.7279454
283.0141959
273.1377345
273.0035824
272.9996723
273.0049439
273.0111432
272.995322
272.9965851
273.0131367
273.021325
272.9296963
272.991923
272.988567
272.9897716
272.9895107
272.9959472
273.0034056
273.0048876
272.9824299
265.7474184
282.7345775
273.1195119
273.0032614
273.0010313
273.0015265
273.0091945
273.0051971
272.9983016
272.9952036
273.004531
273.0099982
272.9955703
272.9911062
272.9925511
272.9938991
272.9973437
273.0029874
273.0053936
272.986235
266.0352356
281.8285472
273.0986573
273.0048872
273.0058438
272.9999915
273.0036724
273.0138663
273.005942
272.9884963
272.9926117
273.0032322
272.996754
272.9975102
272.9993923
273.0005939
273.0010947
273.0021256
273.0033989
272.9861805
266.355786
281.477064
273.1009589
273.002541
273.0085839
272.9995996
272.9956743
273.0100161
273.0115792
272.9983846
272.9925242
272.9940135
272.9986338
273.0046378
273.0055408
273.0056745
273.0051462
273.002286
273.0008988
272.9841464
266.8687093
280.2390831
273.0866891
272.9943805
273.0054595
273.0002695
272.9890424
272.9942637
273.0083895
273.0169373
273.0039227
272.9905491
273.0000747
273.0081766
273.0070051
273.0060453
273.0070637
273.0041819
273.0012738
272.9846845
267.4574911
279.8292881
273.0794786
272.9909001
272.9974585
273.0028879
272.9925248
272.9810658
272.9986293
273.0234617
273.0123457
272.9938373
273.0019177
273.0073957
273.0027771
273.0016657
273.0057236
273.0068811
273.0052589
272.9895315
268.1292855
278.2956507
273.046791
272.9946006
272.9897267
273.0068486
273.0051234
272.9797885
272.9870243
273.0107493
273.0098586
273.0013352
273.0057208
273.0071936
273.000035
272.997349
273.0032282
273.0088047
273.009625
272.99684
268.8984323
277.8985529
273.0287061
272.9986223
272.9872208
273.0055244
273.0119736
272.991835
272.9831948
272.9912286
273.0007724
273.0069422
273.0078817
273.0071799
273.0015507
272.9992504
273.0031515
273.0083425
273.0104554
273.0004655
269.5995487
276.1978366
273.0088246
272.999278
272.9904984
272.9969139
273.0080103
273.0086538
272.9915123
272.9804207
272.9937374
273.0097195
273.0072628
273.0039278
273.0049731
273.007144
273.0060808
273.0053906
273.0066019
272.9996072
270.4305624
275.9711077
273.0152402
272.9992226
273.0027519
272.9858
272.9988797
273.0201405
273.0090351
272.9856002
272.9958334
273.0090273
273.0034134
272.9979902
273.0065104
273.0146886
273.0090729
273.0016663
273.0007505
272.9954521
271.1004371
274.1646275
273.1607594
273.0068587
273.2545929
273.0080708
273.2389528
273.0574457
273.189325
273.0215545
273.0658693
273.00674
273.0104709
272.9834806
272.9852687
272.9921721
272.980355
272.9819334
272.9810688
272.9871868
271.941268
267.2780656
284.2793781
270.6613935
287.1667889
274.4151763
287.3627051
276.5689616
284.7285552
275.9263268
280.3876321
273.463359
275.7820696
270.5321357
271.9612735
268.3832255
269.9638385
268.1120337
270.5744609
269.9707807
272.7134761
289.0313002
273.343997
273.0132884
273.0186132
273.0246589
273.0045858
273.0250527
273.0496618
273.0275414
272.9772693
272.9777952
273.0179046
273.0145132
272.9686013
272.9594569
272.9955336
273.0062997
273.0009972
272.9381438
263.0730135
289.1529016
273.3447105
273.0240408
273.0291339
273.0174967
273.0117131
273.019651
273.0248697
273.011085
272.9880125
272.9802234
272.9944216
272.9938832
272.9736371
272.9696889
272.9845844
272.992216
272.9920775
272.935568
262.8847546
289.276128
273.3517716
273.0288455
273.0312273
273.0163475
273.0216693
273.012072
273.0029495
273.0040307
273.008641
272.9899978
272.9712954
272.9747286
272.9872742
272.9876959
272.9778839
272.982122
272.9902671
272.9458694
262.4976762
289.5396045
273.3614081
273.0175388
273.0151384
273.0186119
273.0262788
273.0011574
272.9888882
273.0080267
273.0291365
273.0022244
272.9536155
272.959164
272.9972227
272.9989796
272.9735705
272.9753582
272.9914385
272.9598651
262.0192036
289.6350556
273.3619563
273.0040994
272.9989207
273.0257612
273.0338219
272.997493
272.9806717
273.011305
273.0396232
272.9962517
272.9513246
272.954657
273.0026545
273.0042967
272.9721545
272.9735404
272.9929879
272.9721125
261.4455868
289.7972099
273.3630843
273.0021076
272.9965429
273.0269046
273.0361903
272.9990725
272.9703095
273.0056862
273.028258
272.3804649
272.9543973
272.9563472
273.0021728
273.0056167
272.9747078
272.9765767
272.9932445
272.9821704
260.9579336
289.5906213
273.3511326
273.0115231
273.005216
273.0181694
273.0313165
273.0020873
272.961261
272.9850085
272.5695122
261.1900851
272.7582789
272.9562958
272.9970918
273.004961
272.9797486
272.9817375
272.9938048
272.990063
260.5777511
289.4687368
273.3335095
273.0207234
273.0126915
273.0070974
273.0246485
273.0081145
272.9619797
272.9558397
271.5199543
245.8421516
271.499972
272.9461145
272.9930163
273.00313
272.9824351
272.9849267
272.9950593
272.9996873
260.4219321
288.7551042
273.2945208
273.0201542
273.0140279
273.0018438
273.0177939
273.0157711
272.9761349
272.9709817
272.9034014
266.7830667
272.8838644
272.9679277
272.9913261
272.9998267
272.9829383
272.9864262
272.9969817
273.0068809
260.5404012
288.2590012
273.2727842
273.0095893
273.0126939
273.0039856
273.0105335
273.0197039
272.995414
272.9740359
272.9914668
272.8184278
272.9983568
272.9722947
272.9895005
272.9981898
272.9849541
272.9882553
272.9988786
273.0125369
260.9005986
286.9844683
273.2386193
272.9974388
273.0118085
273.0085376
273.0034941
273.0143807
273.0086463
272.9866085
272.9868676
273.0032696
272.9902581
272.9753518
272.9889656
272.9990467
272.9905984
272.9916392
273.0001406
273.0101295
261.5765883
286.2702915
273.2291004
272.9926284
273.0092144
273.0118305
272.9995707
273.0000242
273.0076071
273.0035906
272.9966195
272.9935213
272.9855845
272.9817692
272.9914933
273.0002463
272.9967635
272.9959642
273.0010328
273.0055541
262.4285429
284.4118374
273.1880515
272.9916202
273.002118
273.0144951
273.0038866
272.9822084
272.9931859
273.0188097
273.0141391
272.9885537
272.9817568
272.9916688
273.0004308
273.0016943
272.9998781
272.9997661
273.0027305
272.9996391
263.5739307
283.5187991
273.1608437
273.0009171
272.9913429
273.0073621
273.0149326
272.9815316
272.978386
273.021065
273.0259361
272.9885818
272.9800353
273.0025292
273.0115351
273.0005889
272.9972927
273.0014094
273.0054381
272.9987876
264.7491108
281.2419505
273.0955384
273.0137452
272.9820259
272.9923642
273.0271771
273.0011632
272.9752979
273.006008
273.0211624
272.9948619
272.9872232
273.0096357
273.0143522
272.9975184
272.9936116
273.0018384
273.0075063
272.9993338
266.1532449
280.4062307
273.0597907
273.0152966
272.9843021
272.9860554
273.0215877
273.0200567
272.9892705
272.9859657
273.0009833
273.0012753
272.9997265
273.0109913
273.0076354
272.9957146
272.9948087
273.0021256
273.0066758
272.9986936
267.3329821
277.9299703
273.0202199
273.0036349
272.9989695
272.9916985
273.0001546
273.0204413
273.0099412
272.9793007
272.9825808
273.0067957
273.0136674
273.005026
272.9946875
272.9977554
273.0033645
273.0045019
273.0030818
272.992906
268.7897613
277.4217911
273.0311282
272.9946308
273.0228944
273.0011346
272.9816997
273.0070064
273.0284813
272.9901321
272.9784511
273.0106166
273.0243664
272.9973319
272.9825867
273.0016877
273.013059
273.0063678
272.9993673
272.9869919
269.8466919
274.8103218
273.2558046
273.0064504
273.4552215
273.0794081
273.4167291
273.1096593
273.3316698
273.0853052
273.1093377
273.0249945
273.0444537
272.9696133
272.9422441
272.9693394
272.9732572
272.9988527
272.9783329
272.9906694
271.3055236
266.9384672
287.2341868
272.0504098
291.8939501
278.0794669
292.5930606
281.4742339
288.961521
279.7282557
282.6875801
274.9535903
276.3191309
269.6933908
270.9577679
265.5485627
268.3871116
264.4487541
269.8820785
267.0827846
273.4787064
293.8211935
273.5407679
273.0158685
272.9994636
273.0570911
273.0376662
272.98997
273.0207409
273.0279271
272.9766845
272.9679734
273.0009556
272.9891593
272.9522356
272.9366409
272.9663347
273.0070551
273.012928
272.9540147
258.1715767
294.1471179
273.5531618
273.0238325
273.0253014
273.022009
273.0197337
273.0014072
273.0113611
273.0208587
272.9925408
272.9700201
272.979403
272.9813699
272.96544
272.9526144
272.9668258
272.9847499
272.9932364
272.9497997
257.8518382
294.4142162
273.5669107
273.0277821
273.0405413
273.0087607
273.0171593
273.0209833
273.0081497
273.014787
273.0107189
272.9795676