/*--------------------------------*- C++ -*----------------------------------*\
| =========                 |                                                 |
| \\      /  F ield         | OpenFOAM: The Open Source CFD Toolbox           |
|  \\    /   O peration     | Version:  5.x                                   |
|   \\  /    A nd           | Web:      www.OpenFOAM.org                      |
|    \\/     M anipulation  |                                                 |
\*---------------------------------------------------------------------------*/
FoamFile
{
    version     2.0;
    format      ascii;
    class       volVectorField;
    location    "6.8";
    object      U;
}
// * * * * * * * * * * * * * * * * * * * * * * * * * * * * * * * * * * * * * //

dimensions      [0 1 -1 0 0 0 0];

internalField   nonuniform List<vector> 
30538
(
(-0.04382985949 0.002839255477 7.182038635e-05)
(-0.0305725197 0.001701746223 0.009329298717)
(-0.03418537357 0.00435833121 0.002938776958)
(-0.01128421944 0.0002245962533 0.00914938423)
(-0.02587729802 -0.0007121939792 0.009108671277)
(0.002028024806 -0.001168188908 0.01457819907)
(-0.004761849184 0.001318859362 0.01022999366)
(0.01947457107 -0.0007389007798 0.0112938609)
(0.001917621047 0.002806116211 0.01223174146)
(0.03045537286 0.003331275882 0.01675520159)
(0.02955195758 0.001267587074 0.01065712158)
(0.0547819236 -0.005727775051 0.005673894408)
(0.03222498769 -0.007919835826 -0.001152589302)
(0.03541260321 -0.006094755855 0.002609315733)
(0.01408626085 0.0005293840424 0.002180097797)
(0.02184178399 0.002525504346 0.004598761495)
(0.004458288558 0.001378948434 -0.002065589112)
(-0.004771439824 -0.004096558088 -0.00359703794)
(-0.03378683378 -0.007422557021 -0.01012353682)
(-0.05821549338 -0.005874643837 -0.004185017264)
(-0.04053342865 0.006255515848 -0.001307151825)
(-0.02944856929 0.005038150257 0.00719179185)
(-0.03529644227 0.01026523767 0.003998784726)
(-0.0148072424 0.002798212073 0.01092678957)
(-0.02689645307 0.001901532064 0.009897939051)
(0.003465871611 0.001429893972 0.01457932575)
(-0.004484612032 0.00397609379 0.01067651489)
(0.02057791157 -0.002547159847 0.01144202628)
(0.004777097415 0.002571102122 0.01116759942)
(0.02943490009 0.004082164829 0.01467854748)
(0.02311054345 -0.0001911808961 0.01022603242)
(0.0482924615 -0.01393930459 0.007365616968)
(0.03193052222 -0.01976250031 0.001014106895)
(0.04136801433 -0.01557463473 0.00273107321)
(0.0202380801 -0.002789249654 0.0003452024809)
(0.02235045194 0.002345502607 0.002275394484)
(-0.0001213308659 -0.0001899843261 -0.002786794545)
(-0.01100473387 -0.01161657345 -0.002022558825)
(-0.03511340481 -0.01802874613 -0.006354031794)
(-0.04886710489 -0.01434304096 -0.001424689126)
(-0.03555176565 0.008091519278 -0.003418260116)
(-0.02770127014 0.005121874546 0.004392094032)
(-0.03579353235 0.01454785782 0.003922083776)
(-0.01715627185 0.005636565135 0.01191105485)
(-0.0268813582 0.0126241027 0.009092639107)
(0.003492996936 0.009198183764 0.01379431816)
(-0.007582063971 0.009975820406 0.0106851882)
(0.01853466391 -0.0045645245 0.01246574199)
(0.006542081945 -0.002821283595 0.009257426205)
(0.0286284815 -0.005365920296 0.01194467849)
(0.0167990803 -0.006842008607 0.007968526336)
(0.04103164896 -0.01942665454 0.00943727272)
(0.03102135083 -0.02304482017 0.002830716132)
(0.04736477831 -0.02184674253 0.003225819625)
(0.02679556735 -0.01066582459 -0.002187014279)
(0.02357535341 -0.008157207227 -0.0005861948228)
(-0.005283671729 -0.007638790673 -0.00434306379)
(-0.01741980281 -0.01748916178 -7.378501296e-05)
(-0.03573146101 -0.01998660223 -0.001840926435)
(-0.03565719964 -0.01592985704 0.002251808444)
(-0.03082465743 0.006762298552 -0.004362403698)
(-0.02500334759 0.003384497137 0.002593163024)
(-0.03471552329 0.01503522293 0.003486924265)
(-0.01623983744 0.006823994219 0.01156333304)
(-0.02428882278 0.02030203563 0.008021849991)
(0.001567776504 0.01378436782 0.01222223103)
(-0.01421872971 0.01377705751 0.0120281403)
(0.0116083958 -0.004202645363 0.01460206616)
(0.004126921841 -0.006926788369 0.01051725674)
(0.02672290346 -0.01496344178 0.01075478647)
(0.01315705514 -0.01355478959 0.008144084956)
(0.03687800906 -0.02134178153 0.0111450808)
(0.03021158256 -0.02058234793 0.005681465609)
(0.05008416214 -0.02405590335 0.003906159937)
(0.02986213511 -0.01874977951 -0.002544603315)
(0.02448613631 -0.02171791921 -0.002013440181)
(-0.006748859982 -0.01677738046 -0.004881807163)
(-0.01974244673 -0.02006046812 0.00102055254)
(-0.03387927795 -0.01505417869 0.00155704274)
(-0.02395661156 -0.01132385032 0.004951273232)
(-0.02800050416 0.006291185139 -0.004074888707)
(-0.02203166014 -0.0002933336567 0.003130336914)
(-0.03311526111 0.01458183768 0.00208156917)
(-0.01356801292 0.005238043781 0.01045177846)
(-0.02183587439 0.02355083328 0.005824384853)
(-0.001150103288 0.01037576521 0.01048482081)
(-0.02028256433 0.01528535876 0.0110274784)
(0.004010580315 -0.002249175441 0.01602036615)
(-0.001131479265 -0.004059113919 0.009864923778)
(0.02405280908 -0.01968655375 0.01061688518)
(0.01223084647 -0.01718676475 0.005579513431)
(0.03607989124 -0.02223460786 0.01188210775)
(0.0290777414 -0.01658677318 0.004981580688)
(0.04863904204 -0.02487319049 0.004762290012)
(0.02836244072 -0.02306422823 -0.002799208145)
(0.02502750504 -0.03144627549 -0.001366314928)
(-0.004203816599 -0.02231108281 -0.005194993415)
(-0.01619782324 -0.02054173035 0.001216469468)
(-0.02931346434 -0.006207483837 0.002078015134)
(-0.01754417265 -0.004278335892 0.005709958648)
(-0.02629577706 0.006571790442 -0.001906661343)
(-0.01922860838 -0.005610979984 0.005126048046)
(-0.03065156559 0.01090556168 0.001975789265)
(-0.01004688666 -0.0002113462784 0.009056670784)
(-0.02058939219 0.01781529649 0.005529540648)
(-0.004303001919 -0.0001114108709 0.009554382957)
(-0.02314355026 0.01183186879 0.01132443951)
(-0.001927601573 -0.000418909805 0.016315526)
(-0.008261697759 0.00332522411 0.01210162728)
(0.01759104929 -0.01760687929 0.01212138762)
(0.01129310698 -0.01506876859 0.007518727275)
(0.03728645875 -0.02198214049 0.0117774668)
(0.02834397709 -0.01346302256 0.00600415566)
(0.04546611524 -0.02430091767 0.005273255563)
(0.02520196569 -0.02224403019 -0.0003842749701)
(0.02504355615 -0.03364935932 0.0009516151756)
(0.000948535298 -0.02340915384 -0.00336628686)
(-0.008350187989 -0.02017779782 0.001167977904)
(-0.02210800193 -0.0006605343609 0.0005085311767)
(-0.01713748216 0.0001277423562 0.004200215995)
(-0.02712450747 0.008908294178 -0.0005480802459)
(-0.01900278639 -0.01151990302 0.007426496533)
(-0.02912560688 0.009101011268 0.001260301116)
(-0.008855469746 -0.006556732516 0.007802956622)
(-0.02172283496 0.009829039464 0.004027916509)
(-0.005385152556 -0.01217392346 0.009077179879)
(-0.02050619566 0.007320346984 0.008330887534)
(-0.001881492069 -0.00225362594 0.01425682272)
(-0.01332180326 0.009726720641 0.009912728312)
(0.01119234599 -0.01394251635 0.01328919443)
(0.00910946157 -0.01012467457 0.005294186792)
(0.037199686 -0.0206209834 0.01162599125)
(0.02744066976 -0.00997140971 0.0035499194)
(0.04237057792 -0.02174891281 0.005895296686)
(0.02178032321 -0.01694113555 0.0001752535754)
(0.02417044144 -0.03069572853 0.003828242856)
(0.005398188089 -0.02048001811 -0.001565489048)
(-8.624481023e-05 -0.01968646185 0.00151676805)
(-0.01472913157 0.0005932037511 -0.001672347196)
(-0.01772519309 0.0001829643387 0.002188965193)
(-0.02802336453 0.01166089862 0.0001324093133)
(-0.01913636332 -0.01520641311 0.007816108107)
(-0.02686743711 0.008897766725 0.00155518931)
(-0.009688904815 -0.01290887522 0.006624868095)
(-0.0244465499 0.002521661365 0.004467254038)
(-0.006099542187 -0.02179629981 0.009549092177)
(-0.01615253185 -8.289226533e-05 0.008018336086)
(-0.000120501896 -0.01160028795 0.01191854662)
(-0.01658904205 0.007870761665 0.01091445107)
(0.003688150592 -0.01420445168 0.01468601415)
(0.006575146815 -0.003551219825 0.008610972255)
(0.03733728089 -0.01708178748 0.0116798721)
(0.02756587062 -0.002987603602 0.005111616961)
(0.0404665024 -0.01621164811 0.006292163253)
(0.01887598796 -0.01076719494 0.00254944356)
(0.02252525943 -0.02759898644 0.006133596673)
(0.008758296871 -0.01706203719 0.001427407847)
(0.006611433782 -0.01870914702 0.002346442393)
(-0.007827555498 0.0009661412278 -0.002685080849)
(-0.01819398174 -0.001121655841 0.0004003391441)
(-0.0295383255 0.01491084511 -0.001519527232)
(-0.02095886939 -0.01463978552 0.006004417026)
(-0.02723155833 0.01173817277 0.0004664641024)
(-0.0135153764 -0.01749156274 0.005965101489)
(-0.0278540719 0.001512979103 0.003705686714)
(-0.007267590817 -0.02429513197 0.01030829067)
(-0.01332639934 -0.002919314714 0.00658335768)
(0.003871032431 -0.0210813283 0.01007445964)
(-0.0152431423 0.002540694599 0.007086568121)
(0.003212935541 -0.01563230937 0.01458391602)
(0.007063139617 0.003969487652 0.006995688732)
(0.03749643507 -0.01131677119 0.01187519046)
(0.0280815884 0.007675466676 0.002903998698)
(0.03682607409 -0.008024298069 0.006755050377)
(0.01371698597 -0.003885012979 0.002599145806)
(0.01975710973 -0.02476726506 0.008050809439)
(0.01165242708 -0.01338075001 0.002788117181)
(0.01270983286 -0.01636061239 0.00307703217)
(-0.002069572868 0.003021956747 -0.003670786783)
(-0.01806650391 -0.002878982745 -0.0007725246711)
(-0.02776223555 0.01678739514 -0.00298939293)
(-0.02128265143 -0.014750623 0.003181502128)
(-0.02862064661 0.01017953519 0.0007871439381)
(-0.01707087066 -0.02401811951 0.006494001859)
(-0.02911755437 0.0006349328154 0.005155162329)
(-0.009272100696 -0.02455945903 0.01130496614)
(-0.01392083954 -0.002307597349 0.009331068356)
(0.00390107088 -0.02694786229 0.01028504073)
(-0.01282153104 -0.002964909654 0.008137581277)
(0.004791362692 -0.01765431704 0.01425628313)
(0.009578410091 0.007157282138 0.01064590977)
(0.03985917394 -0.0085796151 0.01179288778)
(0.02990809069 0.0135927239 0.004654701651)
(0.03227365439 -0.003387927327 0.00693154258)
(0.007068562009 0.0005272345651 0.005510597431)
(0.01583786395 -0.02114668291 0.009931083398)
(0.01470714405 -0.009285828775 0.004586318089)
(0.01819628598 -0.01361555966 0.003254503627)
(0.001865052921 0.004504823814 -0.004025057917)
(-0.01869876022 -0.005232849799 -0.001542413368)
(-0.02800849349 0.01720837353 -0.004214163595)
(-0.02546345402 -0.0169044093 0.001642845594)
(-0.03351634028 0.007231241969 0.0007957302874)
(-0.02039851916 -0.02835943107 0.007699398019)
(-0.0281321772 0.002895705896 0.004697052757)
(-0.009356916837 -0.02121648837 0.01059685507)
(-0.01508124811 0.007179547497 0.009177021241)
(0.003596428434 -0.02199713416 0.01066484129)
(-0.008790334591 0.003517951939 0.006020014694)
(0.01044757634 -0.0125242271 0.01320709285)
(0.01342546841 0.01483589416 0.008255752103)
(0.04199086025 -0.005669200789 0.01117953239)
(0.03176278296 0.01546453473 0.002346532615)
(0.02755852805 -0.003506168671 0.006907394915)
(0.001229444354 0.006506192921 0.006432887117)
(0.01277502608 -0.01169378623 0.01165137013)
(0.01701666854 0.0001213434136 0.004974957275)
(0.02246753215 -0.01078336731 0.002636834935)
(0.003966671649 0.003005465855 -0.004932032649)
(-0.01794409563 -0.008648776218 -0.001915102458)
(-0.02744432796 0.01628114315 -0.003292178734)
(-0.02815811522 -0.02262363887 0.001941577804)
(-0.03641741333 0.005680539707 0.00217475185)
(-0.0202910572 -0.03011552626 0.008986041684)
(-0.02395624668 0.005484834547 0.005352859086)
(-0.006277794412 -0.02047885978 0.008956448675)
(-0.01457880087 0.01450823481 0.009523295495)
(0.001503733832 -0.01552413506 0.01131880301)
(-0.006271434443 0.01274455919 0.008977480191)
(0.01285956793 -0.006130115186 0.01304187921)
(0.01437624221 0.02067617703 0.01095848096)
(0.0402401794 -0.005679359127 0.01137088597)
(0.03148723403 0.008828680165 0.004724172053)
(0.02589134882 -0.01062280105 0.007256580537)
(0.001339883508 0.0115721859 0.008666176002)
(0.01126340932 0.0004349695728 0.01224203856)
(0.01535321406 0.01144968521 0.005530730844)
(0.02025417164 -0.01059735112 0.002332173345)
(0.003447681057 -0.002668994718 -0.004683810952)
(-0.0150287777 -0.01368376759 -0.001713582635)
(-0.03239198368 0.01536898164 -0.002222342123)
(-0.03280452898 -0.02621664512 0.003000910087)
(-0.03849696155 0.0109549288 0.001638573735)
(-0.02074594074 -0.02203386831 0.008427333589)
(-0.02121878318 0.01405260516 0.003944101343)
(-0.00301459348 -0.01632008945 0.00585888905)
(-0.01167933195 0.01983611931 0.005524132432)
(0.00254366618 -0.006944872224 0.009783292541)
(-0.002297505687 0.02560369432 0.00762906407)
(0.01610384154 0.005797658319 0.01150692019)
(0.01370747724 0.03305520203 0.008236309654)
(0.03354863215 -5.573355102e-05 0.01136195454)
(0.02834159906 0.006693408143 0.00505765264)
(0.02943642233 -0.01512074954 0.007665685029)
(0.009068035353 0.01737329854 0.006928134606)
(0.01269180613 0.01152189238 0.01004888266)
(0.009126640646 0.0206534832 0.00406931981)
(0.01249207133 -0.01102194511 0.002557730631)
(0.00183192084 -0.008461647242 -0.003006690597)
(-0.006644278411 -0.01824688124 -0.0005091045587)
(-0.0350067881 0.01617088857 -0.0007538110753)
(-0.03115842453 -0.02774507472 0.003754234291)
(-0.03320080484 0.01948830805 0.001435517482)
(-0.01833380248 -0.01321414046 0.007115474389)
(-0.01981024553 0.02335942518 0.004731475707)
(-0.002220403931 -0.01524621528 0.005313859736)
(-0.008044859894 0.01981356022 0.004358538207)
(0.005766967462 -0.005949718766 0.008251634753)
(0.002583642256 0.03209000775 0.008276255809)
(0.01818868087 0.01223738552 0.009839294742)
(0.01021740127 0.04041344963 0.008650920162)
(0.02157602382 0.00503877835 0.01221839483)
(0.02088916042 0.008417097761 0.009894832379)
(0.03338525626 -0.01691636113 0.00935245156)
(0.02016130602 0.01730760938 0.005464674906)
(0.01364071015 0.01223705849 0.006127228773)
(-0.0007065162778 0.02172231825 0.002592761683)
(-0.0003159123459 -0.0121872746 0.004027972092)
(-0.001609520368 -0.01019560618 0.000730634563)
(0.003588866409 -0.01945778922 0.00192811267)
(-0.04042267613 0.01810754992 -0.0006366329381)
(-0.03034423496 -0.02288088706 0.003402860537)
(-0.02802069381 0.0288302335 -9.679865428e-05)
(-0.01823433091 -0.002551564283 0.004364356174)
(-0.02252267364 0.03459844629 0.004127040045)
(-0.005552649811 -0.0056370855 0.005441501663)
(-0.005212922296 0.0263917467 0.002286619749)
(0.01138912346 -0.0003164482918 0.005158960599)
(0.01040770902 0.03844012166 0.004408559941)
(0.02205794299 0.01648939719 0.005924226691)
(0.008614407799 0.04445250555 0.004805081817)
(0.01092728955 0.01287981 0.01159316614)
(0.0128747507 0.02090798555 0.01188518576)
(0.03564548838 -0.009267003681 0.0106678305)
(0.02966857413 0.01401743024 0.002465714094)
(0.01586677423 0.002102144424 0.001323978372)
(-0.008193629018 0.01542829758 0.0003799843609)
(-0.01002184948 -0.01085853454 0.005152176293)
(-0.003235636099 -0.003537518685 0.004701277388)
(0.01401063627 -0.01456182748 0.004197130221)
(-0.03815851684 0.02228857775 -0.0003687380909)
(-0.02350789649 -0.01794706091 0.003188563075)
(-0.01865881992 0.03520918862 -0.0002805004196)
(-0.01449828263 -0.0009816545677 0.002592091637)
(-0.02185449728 0.04296034495 0.00463731125)
(-0.008035177858 0.003716505523 0.00768809506)
(-0.004385587506 0.03782116443 0.004206088896)
(0.01444684236 0.004868279945 0.004519690432)
(0.01431453884 0.04056131544 0.003650739365)
(0.02251600499 0.01144487472 0.004241316435)
(0.007653640315 0.03829931932 0.004423952436)
(0.004915823891 0.01367806602 0.01051618102)
(0.005276976844 0.03422415304 0.01375270773)
(0.02844413454 0.0003984161079 0.01208332524)
(0.0282266126 0.007848171115 0.003084969454)
(0.01467868417 -0.01439927454 2.219106596e-05)
(-0.009876933052 0.005241625879 -0.0001349705951)
(-0.01366832883 -0.007996758581 0.005778335058)
(-0.004134556335 0.00910297726 0.006738113969)
(0.0160433995 -0.006464763353 0.005223279658)
(-0.03707202359 0.0263514448 -0.0001769864257)
(-0.02115810882 -0.009441057085 0.002887817759)
(-0.01584465688 0.03935095485 -0.0009544872369)
(-0.01298147382 0.001878374306 0.0003514742138)
(-0.01909453828 0.05019238321 0.001989771431)
(-0.009195784747 0.0170672834 0.006458501634)
(-0.004481145676 0.05392666527 0.004004444096)
(0.01349629864 0.01780630805 0.003021844629)
(0.01494174685 0.04544521582 0.001259387867)
(0.02055362376 0.009802237955 0.002440242825)
(0.0101587584 0.03269355421 0.002178933658)
(0.008028863398 0.01168012706 0.006501829254)
(0.003508860337 0.0417876649 0.009491112831)
(0.01696031188 0.008891866486 0.01088088727)
(0.01924215176 0.007105168493 0.004700632688)
(0.0140784183 -0.02245878055 0.000854619008)
(-0.003721457799 -0.000144501509 -0.0002298014379)
(-0.007248446233 -0.004358850918 0.004214019798)
(-0.002026672286 0.01932186404 0.005459609107)
(0.01174167418 -0.0001951606398 0.004046763992)
(-0.02588433158 0.03123729184 0.0007368361002)
(-0.0143020651 -0.004819361355 0.003184350832)
(-0.01046888994 0.04357651207 0.0001817113772)
(-0.006999503227 0.003363267103 0.0002669117273)
(-0.01101773 0.05494771392 0.0004449931238)
(-0.005428793199 0.024254602 0.005198504535)
(-0.003964166866 0.06520937859 0.005213351182)
(0.008581480276 0.02593901946 0.003666057463)
(0.008582662853 0.04984179771 0.002583201318)
(0.01358381817 0.008928143622 0.00390865487)
(0.008946981058 0.03024019812 0.003127753781)
(0.01131299386 0.006191890178 0.003921606595)
(0.003314710274 0.03788319237 0.005500129805)
(0.003891921768 0.01023841848 0.008850337364)
(0.00606914338 0.01355756893 0.00717491833)
(0.009590702832 -0.01915512953 0.003604555803)
(0.002864500386 0.002450958671 0.000833108497)
(0.0001176703288 -0.003800986345 0.002372525442)
(-0.001012253075 0.02007864203 0.002407020042)
(0.00210036641 -0.0001815451912 0.002048644445)
(-0.01818061536 0.03306013617 0.0010526604)
(-0.01256299962 -0.002013987386 0.002387628519)
(-0.0100434839 0.04924377632 7.37530251e-05)
(-0.005218488314 0.01145514039 -0.0006768611458)
(-0.004344616336 0.05912745382 -0.002078610354)
(-0.001991784294 0.02650645618 0.001159626945)
(-0.003288233935 0.06878414682 0.00271579395)
(0.002828867842 0.02860749385 0.00191361051)
(0.003010741991 0.05547844481 0.001375374426)
(0.006831433121 0.0166300348 0.003011648052)
(0.008249964993 0.03738696543 0.001690979953)
(0.01338675751 0.008947791273 -8.648690283e-05)
(0.006334203854 0.03031579272 -8.078579222e-05)
(-0.0002996379319 0.006339317928 0.004045336097)
(-0.001553708731 0.02102743758 0.005648592645)
(0.006205227671 -0.00824889322 0.004019616055)
(0.007216482571 0.008545563188 0.0008076324003)
(0.005302209864 -0.006339492591 -2.954619245e-05)
(0.0007464606483 0.01309727064 -0.0004911022275)
(-0.002648863162 -0.005204405349 1.241415431e-05)
(-0.003632597895 0.03251234321 0.0009736189092)
(-0.00263626003 -0.0009645520474 0.001428009816)
(-0.0006930445191 0.05438918158 0.0005590433796)
(0.0002093041208 0.01566134755 -0.0003560552216)
(-0.000278573694 0.06232351122 -0.0008488794047)
(0.001477828863 0.02284280054 0.001295283028)
(-0.002629100606 0.06321231057 0.001719455507)
(-0.0009435490287 0.03090324926 0.001789489748)
(-8.315933156e-05 0.05983178307 0.001605154634)
(0.0006867964012 0.02572802907 0.001979552291)
(0.003453566199 0.04866211984 0.001709538818)
(0.006443083118 0.008527039567 -0.0002017913749)
(0.001558612523 0.02088810983 -0.0006823015728)
(-0.002564620245 -0.002490881579 0.001842438428)
(-0.004131904735 0.02516132101 0.003195949968)
(0.0006963072516 0.005808987012 0.002682410905)
(0.004115942 0.01544691858 0.0008138587875)
(0.003176238202 -0.01078966913 -0.0001743374498)
(-0.0002966245924 0.003008299982 -0.00103413483)
(-0.003909677376 -0.01200590801 -0.0001618902513)
(-0.03058072153 0.0001829163248 -0.002283660982)
(-0.02702315 -0.002395789838 0.02419540154)
(-0.03436652783 0.006339479277 0.00861782837)
(-0.002960832349 0.003551882348 0.02928292777)
(-0.01858380886 0.0007645858233 0.02326763871)
(0.003550081029 -0.001178661554 0.04097788982)
(-0.009221295462 0.002160438292 0.02974937897)
(0.02219036628 -0.0004564566676 0.03278375628)
(0.009248054813 0.0007808572921 0.031740431)
(0.02851154632 -0.0006267037126 0.04222889638)
(0.01467917744 0.0003973576809 0.03137074747)
(0.03913250369 -0.00251692559 0.01443111082)
(0.0280701941 -0.003839775653 0.003121360004)
(0.03992001313 -0.005901644428 0.00153547854)
(0.01677641282 -0.002969600716 0.008597777022)
(0.01606416488 -0.001943838575 0.003902600156)
(-0.006502900286 -3.147353451e-05 -0.0005102349871)
(-0.01582531243 -0.001142000118 -0.01514097521)
(-0.0345038128 -0.0003083274981 -0.01487175119)
(-0.03932501561 -0.000661470602 -0.01324754197)
(-0.03209045572 -0.0004175572126 -0.005139699453)
(-0.02270325003 -0.004403067334 0.02038023665)
(-0.03019027453 0.01208276632 0.0108417036)
(-0.006883901945 0.007981424765 0.03338813907)
(-0.02190765142 0.00181038489 0.02525097289)
(0.004537247032 -9.597050359e-05 0.04152228758)
(-0.008724633256 0.004821658626 0.02980644582)
(0.02125625284 -0.0003286948956 0.03329085128)
(0.009119875913 -0.003091593761 0.02868615471)
(0.02827869629 -0.00507480442 0.03607280074)
(0.01328861898 -0.005358137893 0.02795839344)
(0.03611129764 -0.006799936325 0.01757320422)
(0.02564683166 -0.01226042192 0.006789124078)
(0.040520621 -0.01445017987 0.001901219486)
(0.01958161252 -0.01111269537 0.004039940206)
(0.0181073179 -0.007587676301 -0.001633602219)
(-0.005939835065 -0.004573946506 -0.002740879362)
(-0.01602948175 -0.004997986396 -0.01185287668)
(-0.03412511068 -0.002342571212 -0.007868850517)
(-0.03872715826 -0.002133001744 -0.008287218316)
(-0.03377845804 0.002302912401 -0.008847915783)
(-0.0182890917 -0.003637681474 0.01504631305)
(-0.02562055413 0.01352322726 0.01081847057)
(-0.01023561146 0.006860946777 0.03462864429)
(-0.0242380711 0.009014293882 0.02474014231)
(0.005666825505 0.004710316677 0.03990853975)
(-0.009386627229 0.01253278886 0.03039773353)
(0.01664238009 0.001426912756 0.03655890392)
(0.005856279603 -0.004066821662 0.02802972064)
(0.02698799931 -0.01283838285 0.03042178037)
(0.0133848313 -0.01081505644 0.0247117461)
(0.03427791313 -0.01227371964 0.02197147968)
(0.02262876647 -0.01419166359 0.01296749266)
(0.04069915695 -0.01962905255 0.003753298875)
(0.02161105417 -0.01616057845 0.0001359257677)
(0.0206528427 -0.01633234442 -0.008060066242)
(-0.004652218841 -0.01165265124 -0.00529414268)
(-0.01428389641 -0.01173929383 -0.00794905609)
(-0.03239408011 -0.004943603214 0.0009870878523)
(-0.0364839883 -0.00380929805 -0.001673540696)
(-0.03277029107 0.005550533809 -0.01100230586)
(-0.0148948849 0.0009871057573 0.01162188146)
(-0.02265000836 0.01147478766 0.008287180914)
(-0.01015993914 0.004096513293 0.032332309)
(-0.02331455371 0.01405122132 0.02058794527)
(0.006970680962 0.007502024347 0.03499010216)
(-0.01104934776 0.01440136982 0.02957531039)
(0.009603044608 0.002551744172 0.04054818484)
(-0.001020374461 -0.005774247853 0.02883852795)
(0.02362899233 -0.01751994815 0.02705445496)
(0.01361646315 -0.01810886694 0.02017733861)
(0.03374624405 -0.01669210404 0.02521360674)
(0.02043759121 -0.01647038429 0.01712170657)
(0.03911457164 -0.02113190232 0.006380120289)
(0.02190046098 -0.01991641747 -0.001774477016)
(0.02128599077 -0.02316371909 -0.01078725141)
(-0.002694875357 -0.01840656849 -0.006606631609)
(-0.01131878679 -0.01760833892 -0.005030249108)
(-0.02836933959 -0.007519809802 0.007223066659)
(-0.03297813998 -0.004725038889 0.003180494509)
(-0.02883474977 0.01099534415 -0.009836528895)
(-0.01416610826 0.004484572138 0.01241088901)
(-0.02327505324 0.01164873426 0.004678717097)
(-0.008545082994 0.0005014338954 0.02874702945)
(-0.02171368097 0.01876724017 0.01670828005)
(0.005860069914 0.005294181454 0.03093164951)
(-0.01287658168 0.01391752605 0.02878803404)
(0.002463869283 0.0009890540473 0.04410102843)
(-0.008389100962 -0.001080037766 0.0328635548)
(0.01839493194 -0.01713056029 0.02908271499)
(0.01389470017 -0.0184057444 0.01997057154)
(0.03546149484 -0.02106423288 0.02692810228)
(0.0194613509 -0.01597634459 0.02032112434)
(0.03826064314 -0.0222828297 0.009003396794)
(0.02016733739 -0.01897235064 0.0002530758645)
(0.02172112018 -0.02580535254 -0.008898527343)
(-0.0007205747673 -0.0194113482 -0.005190165605)
(-0.006600904902 -0.02027558413 -0.004086948011)
(-0.02307326441 -0.008083685489 0.008641933853)
(-0.02832448728 -0.005697069696 0.004097747988)
(-0.02153547503 0.0133222179 -0.006145912748)
(-0.01437473632 0.002521496041 0.01656610277)
(-0.02532473357 0.009298855451 0.002961652033)
(-0.005296506581 -0.005242556778 0.02533251231)
(-0.01981403495 0.01435382798 0.01394635549)
(0.003497052365 -0.002823153113 0.02790847508)
(-0.01407358778 0.00669426218 0.0254871083)
(-0.0009158612793 -0.003808596286 0.04149431578)
(-0.01388945796 0.003393929076 0.03163095023)
(0.01151626692 -0.01255847896 0.03092827312)
(0.01077972897 -0.0156243959 0.01590123336)
(0.03546172416 -0.02252483944 0.02495701699)
(0.01953392066 -0.01620968177 0.01748668257)
(0.03696858489 -0.02218692899 0.01008929298)
(0.01941220633 -0.01663085696 0.003121364177)
(0.02095961578 -0.02383935951 -0.003269111676)
(0.001230280986 -0.01652453762 -0.001561837374)
(-0.003311114798 -0.01963650666 -0.003365201961)
(-0.01783657511 -0.007762803556 0.005448731119)
(-0.02374612616 -0.006594776521 0.001515917106)
(-0.01742595642 0.01284035073 -0.00304422978)
(-0.01689978183 -0.00637079364 0.0202577453)
(-0.02856782455 0.00824903204 0.002911913015)
(-0.00514865851 -0.01111556643 0.02302099674)
(-0.01989534602 0.007779329523 0.01213959644)
(0.0004159657752 -0.01221219375 0.0277358473)
(-0.01355788781 0.00102935211 0.02239066026)
(0.0002094100644 -0.01064709945 0.03636622151)
(-0.01463887212 0.007479672654 0.03169281485)
(0.005068785705 -0.009092066246 0.03539284098)
(0.00681715245 -0.008016251298 0.01976628974)
(0.03503643602 -0.02083418094 0.02529501127)
(0.01966735473 -0.01166353634 0.01772894555)
(0.03791491287 -0.0198631946 0.0111441187)
(0.01899621318 -0.01138794008 0.007402298945)
(0.02176627915 -0.02089034953 0.003314458069)
(0.002265228195 -0.01138047275 0.004271872454)
(-0.0004002438528 -0.01743829003 -0.002026816591)
(-0.01366091571 -0.005472944806 0.002184437769)
(-0.01865206364 -0.007065094476 -0.002334610426)
(-0.01688811662 0.009843083725 -0.002630386737)
(-0.01749844938 -0.01789056211 0.02030059924)
(-0.02843897657 0.007341757727 0.003434763782)
(-0.005785337299 -0.01632973755 0.02071495522)
(-0.02045032642 0.001859408485 0.01087695072)
(-0.00129749017 -0.01949888976 0.02822673583)
(-0.01298267236 -0.003454949061 0.0182650751)
(0.003748933739 -0.01960659115 0.02838885219)
(-0.0128631569 0.002519637268 0.02415569814)
(0.0006745129241 -0.01176342162 0.03412482457)
(0.002478383178 -0.0002771538368 0.01397754953)
(0.03281499038 -0.01663836885 0.02394559631)
(0.020238203 -0.004203919382 0.01391594262)
(0.03709483121 -0.01461597413 0.01095402695)
(0.01869549944 -0.006160094896 0.008618592315)
(0.02094166934 -0.01957763094 0.00839203246)
(0.003678872636 -0.008766049615 0.009344581382)
(0.0008759944855 -0.01571396946 0.0003643872039)
(-0.01033824728 -0.002789419641 -0.0001407497112)
(-0.01531271979 -0.006747341041 -0.005248018945)
(-0.02312887201 0.00899170182 -0.005859309892)
(-0.01856794328 -0.0234730333 0.01555000579)
(-0.02727315021 0.01023290639 0.002400262367)
(-0.009177835967 -0.0177066145 0.01930336825)
(-0.02197862167 0.002767354144 0.01070554918)
(-0.003368577927 -0.02099770315 0.03003263653)
(-0.01366607735 -0.0004911732585 0.01982885353)
(0.004558598402 -0.02422202301 0.0262069717)
(-0.009183902664 -0.002737349855 0.02295003209)
(0.003162442003 -0.01649316094 0.03484799618)
(0.003369859242 0.007869328675 0.02623695419)
(0.03218714072 -0.01115124011 0.02648296122)
(0.02114209408 0.006790291126 0.01758274987)
(0.03646836411 -0.006837872547 0.01208106119)
(0.01551099037 0.001746928086 0.01234705669)
(0.01993736702 -0.0175788162 0.01294801577)
(0.004998660204 -0.007335493735 0.01368906128)
(0.003850326215 -0.01464720095 0.002161290672)
(-0.007169612297 0.000535142406 -0.001234290725)
(-0.01230277621 -0.006562719784 -0.007404577764)
(-0.02719191398 0.01168423263 -0.009699355818)
(-0.01650173089 -0.02307185976 0.009215856509)
(-0.0241772654 0.01079481271 0.001236055213)
(-0.01122452913 -0.02070310499 0.01946249429)
(-0.02261028386 0.002492238521 0.01155848662)
(-0.003648583061 -0.02406140468 0.03016645778)
(-0.01530564098 0.002570742613 0.02253970119)
(0.002305609317 -0.02584012761 0.02614660636)
(-0.00747767973 -0.005000795803 0.01773989134)
(0.008223882281 -0.02031699125 0.03032669147)
(0.006238831451 0.009582890925 0.02329042781)
(0.03196324402 -0.009963180174 0.02499530112)
(0.02332642954 0.01248183272 0.01456521663)
(0.0334620313 -0.003176960877 0.01167717958)
(0.01113254802 0.00780476161 0.01514091118)
(0.0145422547 -0.01437583683 0.0175217889)
(0.005742642468 -0.005134133616 0.01610481867)
(0.006465274292 -0.01450096319 0.002848841345)
(-0.004494423104 0.002118132587 -0.002924625632)
(-0.01141138333 -0.007414121894 -0.008583668369)
(-0.03121820244 0.01667150524 -0.01088175585)
(-0.01901812114 -0.01929967925 0.005566664844)
(-0.02537871501 0.009876630282 0.001381820934)
(-0.01518326662 -0.02358371856 0.021523244)
(-0.02421014359 0.003266321828 0.01228056144)
(-0.003339861584 -0.02574708905 0.02774630238)
(-0.01499639107 0.00750898331 0.02553887113)
(-0.000629132954 -0.0200497948 0.02910345358)
(-0.005384909417 0.005107056503 0.0210025943)
(0.01351905733 -0.01485410972 0.02973603139)
(0.01068429602 0.01545066339 0.02836054583)
(0.03414558613 -0.006535897921 0.02569051541)
(0.0259760117 0.01554970581 0.01638397206)
(0.03308111397 -0.002979335276 0.01285547562)
(0.007626245332 0.0124843488 0.02076898034)
(0.01079191436 -0.007379543559 0.02224069401)
(0.00488007083 0.001870789081 0.01821437718)
(0.009007331342 -0.01257700379 0.002021754067)
(-0.002078464854 0.001692917534 -0.004576627209)
(-0.008888706577 -0.008992194633 -0.009164877039)
(-0.02905975723 0.02013142166 -0.008453438321)
(-0.0210464846 -0.02006477156 0.006985544485)
(-0.02694861603 0.007294830354 0.00323938545)
(-0.01602954761 -0.02870471636 0.02376784235)
(-0.02399840252 0.004059653467 0.01277113118)