/*--------------------------------*- C++ -*----------------------------------*\
| =========                 |                                                 |
| \\      /  F ield         | OpenFOAM: The Open Source CFD Toolbox           |
|  \\    /   O peration     | Version:  5.x                                   |
|   \\  /    A nd           | Web:      www.OpenFOAM.org                      |
|    \\/     M anipulation  |                                                 |
\*---------------------------------------------------------------------------*/
FoamFile
{
    version     2.0;
    format      ascii;
    class       surfaceScalarField;
    location    "4.4";
    object      phi;
}
// * * * * * * * * * * * * * * * * * * * * * * * * * * * * * * * * * * * * * //

dimensions      [1 0 -1 0 0 0 0];

internalField   nonuniform List<scalar> 
91025
(
1.996847294
0.0586804017
-0.1442622609
1.447398008
0.01288443023
-0.0976893002
0.953069943
-0.03098607152
-0.259178884
0.470096471
-0.1198330995
-0.1609401654
0.2167016319
-0.06412158692
-0.2958739314
0.1080605813
-0.1250057835
-0.2379535791
0.004451957864
-0.1246127946
-0.2741167782
-0.2632879925
-0.2439421071
-0.2230369366
-0.6145781719
-0.2658217587
-0.2234211509
-0.7656629434
-0.2911359106
-0.1330144234
-0.6139426934
-0.2301067991
-0.07302194332
-0.3083147147
-0.2098862754
-0.04707385365
-0.274650331
-0.2430637906
-0.180985972
-0.6319285512
-0.4075179111
-0.3612530197
-0.8138458928
-0.07085316642
-0.3440338335
-0.2230682523
0.5203638375
-0.1951084435
0.365233965
0.5149635259
-0.1450832956
0.001785070637
-0.3624558743
-0.3126474414
-1.159138557
-1.117809177
-0.4300666534
-0.7528310599
-0.1918239732
2.013274678
-0.005027957932
-0.1549046422
1.40155388
-0.1421777863
-0.1152930476
0.9133471977
-0.1443894514
-0.2611513728
0.4542844988
-0.2466026046
-0.1624680951
0.2202108511
-0.1411361704
-0.2956074355
0.09012776221
-0.2763270444
-0.2204732969
-0.0344304305
-0.2864600448
-0.2381935865
-0.2963129541
-0.4932303303
-0.1815874573
-0.6250825501
-0.4851450694
-0.1827028384
-0.7585343171
-0.4694102775
-0.1092286115
-0.6144718065
-0.2399880601
-0.05665936989
-0.3263794425
-0.1553265847
-0.04488901774
-0.2660077078
-0.2155092279
-0.1614291802
-0.4595886786
-0.5663691878
-0.3107923695
-0.5708757513
-0.2365154105
-0.3345862334
-0.2745115853
0.4662295538
-0.2691630426
-0.03679584518
0.4905343442
-0.2220687385
-0.2787145962
-0.6047994163
-0.2780511268
-0.9587521902
-1.503518797
-0.2778096792
-1.018754035
-0.1076952725
1.984731301
-0.1190667914
-0.1494214611
1.338499571
-0.3985999104
-0.1098171327
0.8844160038
-0.290715018
-0.2647612643
0.4543551821
-0.3656546505
-0.172455963
0.1974507675
-0.2359226727
-0.2957036666
0.03562599601
-0.4523961983
-0.1854063648
-0.09274186947
-0.4572503742
-0.1909931657
-0.3238076147
-0.7228404963
-0.126208836
-0.5901453047
-0.6411933831
-0.1485567298
-0.6890065838
-0.5725523298
-0.08930708792
-0.5803541752
-0.1279031095
-0.08014872043
-0.3806980906
0.0525734807
-0.06578823644
-0.3107505764
0.05872543142
-0.1591788873
-0.2885431466
-0.4204199882
-0.2372378924
-0.2761422672
-0.452307846
-0.311537974
-0.3255495812
-0.2465940561
-0.3678334827
-0.4733024875
-0.130039608
-0.3227248871
-0.6324926252
-0.6936932431
-0.236521655
-0.7162589704
-1.052176075
-0.09546732065
-0.6524224739
0.004635680469
1.901250374
-0.1473664076
-0.1164022253
1.311268941
-0.5714536217
-0.0666667469
0.8972697154
-0.3200338196
-0.2570145135
0.4730664109
-0.4056944701
-0.1895831516
0.1638915237
-0.3182286313
-0.2821408353
-0.031572731
-0.6092462887
-0.1401048127
-0.1513075092
-0.5143211922
-0.1362899806
-0.3181083987
-0.793889431
-0.08196624636
-0.4899107123
-0.699001247
-0.1120167947
-0.5321843196
-0.6723772889
-0.09268888861
-0.4835291187
-0.1386288913
-0.1162678065
-0.4302746474
0.1258225296
-0.1389143639
-0.4634868166
0.3093389099
-0.1878326913
-0.3326708992
-0.1440877534
-0.1956695639
-0.1790510215
-0.5980742365
-0.2531403757
-0.3363307253
-1.205799574
-0.3809182924
-0.7091990711
-1.021625792
-0.3742735458
-0.8230855991
-0.6895221227
-0.2112658813
-0.5022211891
-0.1508671371
-0.00415181222
0.0727831295
0.06068542394
1.771012375
-0.001471255447
-0.07879986788
1.309004321
-0.5147161333
-0.01151068736
0.9256496852
-0.178175833
-0.2495276049
0.4493143274
-0.3882008676
-0.1985503031
0.09598674417
-0.3518398206
-0.2492569596
-0.09766505766
-0.6762061043
-0.08147912802
-0.2043797042
-0.3530562359
-0.1039329138
-0.3055662257
-0.6444299883
-0.05776743081
-0.3714530178
-0.6496767672
-0.1161500813
-0.3402252696
-0.8472863172
-0.09579212688
-0.3176686992
-0.393496939
-0.1941689968
-0.4251047158
-0.1609374909
-0.2303996803
-0.6522472713
0.283176036
-0.2834623569
-0.6003281051
0.1019769632
-0.1984181636
-0.34643594
-0.5219597303
-0.1928740388
-0.2935488455
-1.828284546
-0.2678692146
-0.521544991
-1.730044664
-0.3055151472
-0.6125649799
-0.6972032746
-0.2003917545
-0.3963678732
0.6222079111
-0.03784575496
0.674562487
0.006738462222
1.685932737
0.2055215855
-0.07397366838
1.330855819
-0.2943045243
0.007949513553
0.9447101807
0.03771026812
-0.2378192301
0.3838433897
-0.3392077474
-0.1809978819
0.06062291338
-0.2958918991
-0.1841199264
-0.08436884504
-0.5853857707
-0.02807187058
-0.2319993449
-0.05589111867
-0.09354312058
-0.3499657189
-0.3540448792
-0.06396658813
-0.350027418
-0.4773853224
-0.08431195924
-0.2006651498
-0.9476823263
-0.07089004907
-0.1343650027
-0.7581132169
-0.1909139185
-0.3249113512
-0.693932444
-0.3095448492
-0.7589096465
-0.05214482676
-0.3762236789
-0.9876587965
0.1722158492
-0.2722031712
-0.7667450534
-0.2893534531
-0.1411537199
-0.2921442171
-1.73765861
-0.07478489214
-0.02257031066
-1.882333665
-0.1260213397
-0.08988914155
-0.7566930525
-0.1951641038
-0.3870392103
0.7721236577
-0.1777589264
0.7861334071
-0.1151560886
1.638335731
0.3453046673
-0.1078322514
1.363723823
-0.1082966826
-0.01728744487
0.8854788633
0.1707615598
-0.2322194142
0.2665377518
-0.3363538052
-0.1340735725
0.05500996982
-0.1317463932
-0.1232339506
-0.01725409427
-0.4145998588
0.001848201777
-0.2636907748
0.1589220851
-0.128663627
-0.5010100522
-0.1752553705
-0.08385901333
-0.4733671537
-0.2366270929
-0.05930559657
-0.2046964065
-0.8492060208
0.007755860445
0.01136617247
-0.9009490844
-0.1678138229
-0.09403945786
-1.137906498
-0.3073135691
-0.6551096948
-0.4845619994
-0.468733907
-1.262243316
-0.05047461554
-0.3946448368
-1.25723626
-0.08721790964
-0.1658170133
-0.3661738172
-1.141370523
0.09676068595
0.4814541767
-1.395940178
0.0809352675
0.496645244
-0.8208310166
-0.179035619
-0.3863599345
0.2831083752
-0.3426284715
0.356602932
-0.2578870663
1.652547495
0.3560687285
-0.1557330293
1.344613392
-0.07892938694
-0.06152909414
0.8156499784
0.1553040149
-0.2169709617
0.2162106296
-0.3719628356
-0.08023864036
0.09916170442
0.09852397249
-0.08302449898
0.0830532185
-0.2680979386
-0.00473120917
-0.2821732511
0.08764584655
-0.1644847493
-0.674676427
-0.2418399555
-0.1007918036
-0.6758886605
-0.01865648116
0.004450357442
-0.3315758855
-0.4926998275
0.07059846803
0.03775471516
-0.5731753213
-0.05946228879
0.1209238859
-1.11644066
-0.2592784349
-0.4329104381
-0.787905733
-0.4775253299
-1.330880543
-0.5630207639
-0.527584279
-1.634445556
-0.1886201017
-0.246584867
-0.5268959058
-0.5040300902
0.1573994847
0.7366850153
-0.6566352127
0.206717497
0.8737874926
-0.8418086258
-0.1566446275
-0.3204776756
-0.4689741376
-0.4439135366
-0.3124683657
-0.3487162815
1.646896881
0.2857575862
-0.1749589326
1.269224866
-0.1715440313
-0.08313319555
0.7510314227
0.1271318822
-0.1909064269
0.2166628654
-0.3996634032
-0.04130355092
0.1113068872
0.3203695998
-0.08349380247
0.08641608422
-0.2347764724
-0.0211463917
-0.2848118228
-0.1649765481
-0.1717362249
-0.7395610037
-0.516354721
-0.08622454166
-0.81499575
0.1247429793
0.005069779597
-0.4984380279
-0.05409622641
0.08476886603
-0.05808228002
0.02273056297
-0.02662706775
0.1790947289
-0.7683050173
-0.1837313433
-0.2422471748
-0.8832050217
-0.441257719
-1.210592388
-1.18276759
-0.5776975382
-1.695397304
-0.5557190203
-0.3412689279
-0.6592894059
-0.09619078402
0.09928973124
0.720210062
0.07348862564
0.1991712632
0.996465664
-0.8177481949
-0.1471146212
-0.1522761508
-1.15550249
-0.443936565
-0.9098417883
-0.3339744321
1.675284061
0.1883079501
-0.1549919353
1.214537986
-0.2900432647
-0.06531604024
0.7659381003
0.2279677453
-0.1484416203
0.2852855509
-0.3038481594
-0.02752355722
0.08201956442
0.4422084235
-0.1000078912
-0.01673325911
-0.2476215303
-0.02036884971
-0.2762390749
-0.3037374393
-0.1026427372
-0.6313730907
-0.6961776035
-0.05282013955
-0.7591101214
0.2021906352
-0.01651975566
-0.6046222302
0.2156496495
0.008879674894
-0.2950973684
0.4303842806
-0.05472217848
0.003219056197
-0.450339571
-0.1506442226
-0.2613391954
-0.9420170666
-0.353210415
-1.037542684
-1.69610772
-0.5354819457
-1.469839766
-0.946688046
-0.378951514
-0.6873319216
0.07505145361
-0.04716505047
0.4440727703
0.4919452068
0.06299503066
0.8045390386
-0.7425108119
-0.1561571698
0.0864272817
-1.514967539
-0.3411937316
-1.195907418
-0.2292875779
1.655963811
0.1434305486
-0.1048749689
1.174549324
-0.3755478008
-0.02081796755
0.7826498044
0.4257761968
-0.1216450678
0.3190790262
-0.1513484534
-0.04214433379
-0.02983119705
0.413124801
-0.1347680246
-0.1879139846
-0.2472793883
0.003695391097
-0.2687420821
-0.1104487743
-0.01566607836
-0.4190151535
-0.5744378899
-0.003949932505
-0.5694842506
0.2817479921
-0.08697874729
-0.6519964007
0.2153695434
-0.1088061244
-0.5686972785
0.4496761512
-0.1433036374
-0.3626288096
-0.451456025
-0.1401622297
-0.4369485527
-1.032268168
-0.257726204
-0.8158717344
-1.908014336
-0.394990732
-1.007846186
-1.010101783
-0.3638964392
-0.5731282964
0.1523965758
-0.2263777424
0.07748428936
0.6529989706
-0.1382267326
0.472235494
-0.6093624589
-0.1661561154
0.3895003547
-1.45639205
-0.1702523635
-1.155709522
-0.08312051827
1.690051207
0.1525268361
-0.05167690516
1.189700851
-0.4525766967
0.01914256739
0.8117415477
0.5578721381
-0.1226520769
0.3527532959
-0.1171040994
-0.07521939625
-0.1008175683
0.2378334896
-0.1584523801
-0.3252582756
-0.3059817491
0.01279840828
-0.2652927529
0.2344091845
0.05574497178
-0.2417867907
-0.2737982427
0.02371942722
-0.4343645809
0.366637359
-0.1303975838
-0.7151822987
0.02220760426
-0.2085929462
-0.8548373899
0.1765047138
-0.1972534735
-0.7533537829
-0.705114542
-0.1434090754
-0.6557600939
-1.093126326
-0.1558440006
-0.5842125375
-1.722219318
-0.2510935559
-0.5251927785
-0.7282293599
-0.3289451219
-0.4568444982
0.2074905264
-0.387027733
-0.2993142946
0.6455999656
-0.3180981002
0.1063438038
-0.3616013066
-0.1585155085
0.6277206571
-1.015647266
0.002244473253
-0.8429336737
0.06021240499
1.693179491
0.2054249045
-0.01875735162
1.2619006
-0.5574347495
0.0348072528
0.7913019878
0.4472666488
-0.1574277363
0.2711035076
-0.3516442389
-0.1253972813
-0.1344899754
-0.06641658899
-0.1847785296
-0.3355944569
-0.5309195168
-0.001630119272
-0.2540294682
0.3528243358
0.03765695783
-0.1934901196
-0.1464926686
0.006246515646
-0.4220314234
0.3363886538
-0.1714066016
-0.8312343513
-0.2323082146
-0.2485941647
-1.096540417
-0.1340875292
-0.2170275339
-1.044993344
-0.8985017145
-0.1154701254
-0.7416585913
-0.9602871736
-0.07415475824
-0.2729070718
-1.284929359
-0.1394528921
-0.07345874737
-0.3829942918
-0.3241090952
-0.3476002747
0.07480705653
-0.5268906352
-0.5986234239
0.4567889673
-0.4559533584
-0.160126369
-0.06454942801
-0.142776137
0.7980300755
-0.2651206356
0.1650081123
-0.3450673069
0.1716762008
1.711524888
0.2983046229
-0.00105382095
1.355567576
-0.6459098622
0.02552857511
0.7748656342
0.04800659148
-0.1905294875
0.183361943
-0.8958313273
-0.1673528764
-0.08853054406
-0.4263291338
-0.1744107427
-0.2035750699
-0.9104252442
-0.03427820916
-0.2057632398
0.02788614473
-0.02910045664
-0.2240707241
-0.4106671506
-0.05081732956
-0.5381914113
0.06971712013
-0.1903142587
-1.001603842
-0.5262758748
-0.2527783448
-1.295057474
-0.2798845777
-0.1848123395
-1.202741935
-0.8018918956
-0.07592661673
-0.7135581999
-0.5477218822
-0.009546459444
-0.01883215384
-0.7285546779
-0.0839037346
0.2011646979
-0.213560379
-0.3442826589
-0.2857167771
-0.3204370017
-0.6177574259
-0.7391166848
0.07259893349
-0.5312079571
-0.3047316855
0.2168192671
-0.142533155
0.8312230341
0.5907624833
0.2352727061
0.2021875908
0.2185539027
1.616685412
0.4149191535
-0.01600894566
1.294372582
-0.7297495585
0.0003272692031
0.6618246027
-0.4951140885
-0.2109570974
0.09213435316
-1.57453955
-0.1633774485
-0.03597756155
-0.7444607903
-0.1475030305
-0.06050268123
-1.312013362
-0.06339815143
-0.1175719975
-0.5792579882
-0.1149749025
-0.2426381735
-1.046114567
-0.1180418247
-0.6341022177
-0.4649497458
-0.219833262
-1.101198039
-0.9280284686
-0.2425780809
-1.359997202
-0.3259664794
-0.1605587795
-1.214782655
-0.4600646714
-0.04345132235
-0.621827074
0.09140244571
0.02372455724
0.09993330254
-0.1561540866
-0.06283338133
0.3003627908
-0.2065281978
-0.3438151704
-0.1715898821
-0.8501938658
-0.6045841189
-0.5935373596
-0.3734817061
-0.5235376566
-0.2307361455
0.3569576211
-0.1837654975
0.7291501767
1.289767782
0.1690823943
0.6391395341
0.1717071745
1.477150095
0.45824078
-0.03605219686
1.109315859
-0.8550857464
-0.03430088572
0.5514173536
-0.9895035329
-0.1732794939
0.1144512261
-2.139487002
-0.105701409
0.03458262975
-1.003610844
-0.09592681633
0.01194403616
-1.634443682
-0.07685223954
-0.06008003159
-1.119032976
-0.131231651
-0.2109376475
-1.702676627
-0.1305525257
-0.6142326035
-1.104151344
-0.2053525771
-1.034199132
-1.387096735
-0.214062659
-1.25019761
-0.4254014878
-0.1433952736
-1.127412568
-0.2064439321
-0.05684562184
-0.6398795112
0.6338651716
0.001882573559
-0.04341191841
0.2914655696
-0.0742902825
0.16623143
-0.1205996203
-0.2780884121
-0.04256662908
-1.087376466
-0.4609095755
-0.2014812001
-0.5959132492
-0.4194154159
0.005971732575
0.3403225707
-0.2353006577
0.5103306852
1.520521112
-0.004342999739
0.7762188382
0.04830880359
1.194003067
0.3370430234
-0.07092291964
0.7306406741
-1.113771673
-0.06554329522
0.3751212169
-1.25946587
-0.1081070197
0.1724706079
-2.363900466
-0.02318211679
0.06882978868
-1.218362317
-0.07950132676
-0.03296461179
-1.898734351
-0.08941219742
-0.06462319784
-1.395077017
-0.1150294934
-0.1694941542
-2.097808349
-0.09631267765
-0.460870071
-1.583801248
-0.1557779727
-0.7627695037
-1.771115911
-0.1643541093
-0.9285942662
-0.651659143
-0.1449549721
-0.8968221713
-0.2624742346
-0.1112668816
-0.6902645973
0.7534657669
-0.08106453972
-0.3643053603
0.5211003645
-0.1065880432
-0.1001953908
0.2342937519
-0.154083966
0.1157536291
-0.6495802142
-0.2052441829
0.3211230944
-0.2703062446
-0.2136441651
0.4059325385
0.2731716244
-0.2587695698
0.2683696622
1.15492812
-0.2421158771
0.5314440167
-0.1071260548
0.915179858
0.06231848854
-0.08708042125
0.3877469823
-1.505800279
-0.0881926621
0.2475275387
-1.252158134
-0.024445991
0.2573222022
-2.270362302
0.04430001409
0.1171001957
-1.464270492
-0.06682629098
-0.07478494789
-2.188191947
-0.09630815911
-0.1180895786
-1.531148167
-0.06347786231
-0.1543691026
-2.198231811
-0.03166751872
-0.2979583704
-1.702584825
-0.06716736919
-0.4408468928
-1.9044401
-0.09285875695
-0.5649959472
-0.8747143158
-0.118630228
-0.6324176675
-0.5925965439
-0.1526370264
-0.6836393732
0.4241195884
-0.1591980711
-0.6298540298
0.448703491
-0.1394749444
-0.3624878367
0.7362340632
-0.05832683708
0.1651397219
0.3026027948
-0.002831527816
0.6647870126
0.5305260617
-0.03314928364
0.6479347472
0.2694711408
-0.2285466747
0.08374510813
0.4351609494
-0.3846532508
0.06161214819
-0.2041899288
0.5435244384
-0.2354183722
-0.08452360307
0.1067306787
-1.918796524
-0.07891724224
0.102591397
-1.110861434
0.01514766302
0.2229312906
-2.041234005
0.06517019688
0.1029929749
-1.64583994
-0.07132812474
-0.1099781702
-2.488265744
-0.0874395219
-0.173897187
-1.63371429
-0.02876677816
-0.1482686872
-2.103943122
0.0207851341
-0.1217995296
-1.45463789
0.001024118223
-0.1300852435
-1.722890888
-0.02612416823
-0.1973064793
-0.9852074695
-0.08545849858
-0.3073416723
-0.9980835108
-0.1496506576
-0.4863436876
-0.1376647819
-0.1860622453
-0.6146368881
0.1168516848
-0.1440046799
-0.4171376683
1.104557862
-0.00391650489
0.1290885012
1.28946726
0.1173941172
0.6384148521
1.391483372
0.08074450414
0.6153782116
0.3976884255
-0.130694125
0.009595534386
-0.2212597584
-0.3395379002
-0.4042994633
-0.1978660763
0.1986315134
-0.03876037071
0.00961567518
-0.03159712287
0.05239353224
0.02715245517
0.1329785449
0.02726542585
0.05796013139
-0.02914095072
-0.06466323644
-0.03892363204
-0.1082300431
0.00569207634
-0.05866413276
0.02764314793
-0.01632617826
0.02493514989
-0.009899126159
-0.007709430287
-0.03049080112
-0.03140772013
-0.095748804
-0.07314510801
-0.2159305139
-0.09640967915
-0.3113242006
-0.06796691299
-0.2320267595
0.01413303544
0.04378312532
0.08800960863
0.3043631446
0.07214618458
0.284780118
-0.04267474758
-0.0183885387
-0.1582188493
-0.0899109414
1.830025754
0.05554644336
-0.2425816719
1.380297281
0.01860353818
-0.09817730858
0.9299127476
-0.01024443574
-0.4398231942
0.4162926611
-0.1287367915
-0.2391135684
0.2156533077
-0.05419755178
-0.4352516958
0.1712257138
-0.01871798179
-0.2801220325
0.08654436471
0.0364999258
-0.3874939193
-0.1476441824
-0.09723720551
-0.3553195494
-0.4558237434
-0.1531980904
-0.4088157496
-0.6112389491
-0.2372444605
-0.3292375384
-0.6183701683
-0.2393636316
-0.2932267564
-0.5706273464
-0.2553774971
-0.2931756013
-0.6076699445
-0.2062743279
-0.4395495068
-0.6843548114
-0.1810488119
-0.6235600108
-0.624823435
-0.001858286848
-0.5836181663
-0.1691516843
0.2759492659
-0.4078130016
0.1434734879
0.1954206099
-0.3634033623
-0.08479395943
-0.259660534
-0.5992048052
-0.8471698007
-0.5866142749
-0.7051678937
-0.4657077291
-0.355088908
1.846412915
0.0549187309
-0.2686865751
1.356769074
-0.0649685548
-0.1316640349
0.8943390226
-0.1160063429
-0.4508291845
0.418295909
-0.2947706902
-0.2295910581
0.2508509192
-0.1111782409
-0.4354835578
0.1841120235
-0.0904531491
-0.2771044174
0.05013652606
-0.05489154479
-0.3655199374
-0.201447721
-0.2919504926
-0.3133401451
-0.4988646778
-0.3495774745
-0.3491020191
-0.6343378049
-0.4341242394
-0.2845247434
-0.6287926394
-0.3533373375
-0.2561491148
-0.5487413883
-0.3297287337
-0.2737400275
-0.5534158684
-0.2451680918
-0.4045815084
-0.5799300962
-0.2609888768
-0.5743236118
-0.5206966943
-0.08422668882
-0.5877315924
-0.2223598315
0.2175506116
-0.5202180982
-0.06050300517
0.1113658305
-0.4656729868
-0.2316366703
-0.4743794626
-0.5484234217
-0.7347904601
-0.8572761294
-0.5162313105
-0.651012416
-0.234695308
1.828197566
0.006643172689
-0.2737830015
1.292955075
-0.2211243305
-0.1419695189
0.8544189109
-0.2565087918
-0.4499477769
0.44158435
-0.4326359473
-0.226176548
0.2871184457
-0.144560204
-0.4416011556
0.1636071196
-0.2242859092
-0.2615355341
-0.022503215
-0.2371410348
-0.3316244628
-0.2658655684
-0.5560260321
-0.2443487466
-0.5225749958
-0.5521807521
-0.2978262183
-0.6254933629
-0.5873555109
-0.2340143218
-0.6042154671
-0.3706150357
-0.2671675341
-0.5226886166
-0.2847191618
-0.2692995243
-0.5067997987
-0.156697539
-0.3934401567
-0.4747147552
-0.260007584
-0.4982317052
-0.4020438672
-0.2238964217
-0.5791935691
-0.2886916565
-0.2049756075
-0.650318025
-0.302178231
-0.2581295588
-0.5882780306
-0.4037174012
-0.6050530079
-0.4795093366
-0.5642769754
-0.7259905777
-0.2743820718
-0.5045653787
-0.06940986152
1.773547728
-0.03181141357
-0.2435798865
1.204989315
-0.3760174279
-0.09594616188
0.8391205982
-0.2898995915
-0.4279253513
0.497937978
-0.429580594
-0.2297664423
0.3135376483
-0.1415829597
-0.4323743986
0.1083868983
-0.3645290679
-0.2280615437
-0.1011199196
-0.3919927474
-0.2639862874
-0.308677438
-0.7302181452
-0.1805528531
-0.4985530641
-0.6566831119
-0.2275945705
-0.5578358669
-0.6729596781
-0.2140009402
-0.5438511936
-0.3885041881
-0.2695600052
-0.4984627439
-0.2930486321
-0.3245840343
-0.5189793448
-0.1218609916
-0.4005212113
-0.4831313008
-0.2500033746
-0.4513800147
-0.3993959899
-0.3504623788
-0.5172188686
-0.3511698339
-0.6894924859
-0.6721396283
-0.4216423439
-0.6688540993
-0.6275860835
-0.459978301
-0.6491989566
-0.4263309083
-0.4118741755
-0.3760176904
-0.1235987393
-0.1892801083
0.02665012168
1.675781191
-0.02091351949
-0.2006315782
1.146401538
-0.4638274835
-0.02464500934
0.8464337424
-0.1541888288
-0.4062801595
0.5452776939
-0.2989983244
-0.224629191
0.2827750976
-0.1004642596
-0.3997774039
0.01845724466
-0.4729582607
-0.1563803272
-0.190535488
-0.3927766654
-0.2087207463
-0.3312985111
-0.6957086141
-0.1245370448
-0.4372778939
-0.5694699192
-0.2217284753
-0.4627070255
-0.6970021335
-0.1939772576
-0.4482483662
-0.4785557909
-0.3619418927
-0.4619310651
-0.4810248673
-0.3927385792
-0.558619972
-0.2425968683
-0.5006299264
-0.5770047411
-0.3065032188
-0.4431318305
-0.4957025415
-0.4002364448
-0.4446003759
-0.3779279462
-0.9878398846
-0.5445764025
-0.370043966
-0.9231198279
-0.5463556247
-0.3576631047
-0.647305187
-0.3908363097
-0.2807803974
-0.05250396566
-0.132641432
0.08216612979
-0.001572125206
1.60012992
0.04267761557
-0.1835655584
1.159695899
-0.4334544372
0.01289489167
0.8893551431
0.06605307245
-0.3815541416
0.5353471184
-0.1442961026
-0.2019051302
0.2190940276
-0.0550170006
-0.3226969088
-0.05006521266
-0.4972983018
-0.07195820038
-0.2400817952
-0.2257725271
-0.1577915115
-0.3413612829
-0.4537196675
-0.1059780609
-0.4042714031
-0.3343834381
-0.1654279943
-0.4085917812
-0.6524724195
-0.1632136661
-0.3960482189
-0.6107401484
-0.3324757758
-0.4226468281
-0.7661248825
-0.4598843078
-0.5812184083
-0.498125375
-0.5737941446
-0.7063126636
-0.4408491262
-0.5214993241
-0.6668402768
-0.4011528202
-0.3806504329
-0.3996645775
-0.9938137688
-0.3295762981
-0.200395892
-0.9563644625
-0.3453166922
-0.142811568
-0.6748124928
-0.3704095951
-0.1962899189
0.018325014
-0.278277305
0.1530010179
-0.1372420768
1.540025512
0.1424296379
-0.208401338
1.229161698
-0.3233861131
0.004530963607
0.9117866405
0.2370160171
-0.3677569168
0.4398725896
-0.1109840832
-0.1549226343
0.1397547284
0.00734641667
-0.2509520907
-0.06974357443
-0.4548142494
-0.00326219241
-0.2508345658
-0.02657350662
-0.1667226827
-0.3805787729
-0.2250951989
-0.1023549961
-0.4669577185
-0.1001218125
-0.1447518863
-0.4613093736
-0.590824962
-0.06552549024
-0.3831013575
-0.6262204019
-0.3457188495
-0.3601861465
-0.9574165928
-0.4228260096
-0.5194945846
-0.6684087828
-0.6664295035
-0.7584236138
-0.6116483854
-0.6321600906
-0.8096760755
-0.4132404285
-0.4141262059
-0.4227180368
-0.8750424303
-0.1249424522
-0.01797369713
-0.857343031
-0.1111392306
0.112679217
-0.7501832343
-0.3376465808
-0.1198741779
-0.1650373649
-0.4571675173
0.007519884408
-0.296802707
1.536189656
0.2615543794
-0.2499070005
1.316644156
-0.183514119
-0.02671650202
0.921981072
0.2840207585
-0.344918081
0.3560578979
-0.2087729341
-0.1049655151
0.09509815752
0.09541756052
-0.1886066928
-0.02497714364
-0.3565203575
0.01438787821
-0.2114469371
0.06720606029
-0.1815397703
-0.4371621937
-0.2053192549
-0.1201860655
-0.6049680422
-0.01594561894
-0.06301733529
-0.593223342
-0.5019146313
0.006331540694
-0.4440421947
-0.4602789327
-0.204001463
-0.3110743613
-0.8643450168
-0.3679962294
-0.4305368508
-0.648488214
-0.6479812744
-0.7456750804
-0.7760143595
-0.7707474626
-0.9125462742
-0.5437768493
-0.5036509135
-0.4778245573
-0.7973353294
-0.04977818975
0.0773185535
-0.7454124953
0.04537011913
0.2953945475
-0.8499106162
-0.2962457854
-0.01332297453
-0.4432622764
-0.5476723289
-0.2263282269
-0.3868324009
1.53707577
0.3752379782
-0.2663160733
1.31229234
-0.0815753531
-0.04105893203
0.881924413
0.2754593162
-0.3198216943
0.3043970126
-0.349895702
-0.0624839901
0.068964321
0.1958394367
-0.1808589394
-0.0005029662004
-0.2563945526
0.01557296449
-0.1954877342
0.0468295381
-0.1823370481
-0.4922265286
-0.3905433806
-0.09663057275
-0.7282587763
-0.06733352817
-0.0535028759
-0.7088050764
-0.4190267799
0.03895068962
-0.5058389493
-0.1647146832
-0.1469102566
-0.3133699388
-0.6055459124
-0.2713141152
-0.3885427703
-0.5117577685
-0.6034100919
-0.7177210969
-0.9368423679
-0.8110669971
-0.9337486153
-0.7476516973
-0.611765517
-0.5188072685
-0.8135072908
-0.1130023776
0.1027938219
-0.6369075319
0.04739370229
0.4188341228
-0.909401222
-0.2648876026
0.1634387544
-0.6607623149
-0.5317504068
-0.4362215563
-0.3730547879
1.588738098
0.424706782
-0.2463039767
1.26511194
-0.07058063283
-0.03099127532
0.8461322085
0.3048986945
-0.2749340441
0.3250824036
-0.3982052476
-0.0385943453
0.07409684666
0.2551660322
-0.1772980064
-0.03465095197
-0.1975117131
0.02959832523
-0.2312185474
0.02750705755
-0.09163231877
-0.5223338415
-0.5363353424
-0.04312123907
-0.7452876551
-0.09384343386
-0.05195792348
-0.7437879644
-0.3154420712
-0.03634230022
-0.5774542504
0.0952318948
-0.1577520596
-0.4035157341
-0.3861039713
-0.2606422715
-0.4727303367
-0.4461962489
-0.5145384979
-0.7508384402
-1.097729792
-0.7704858908
-0.9106021767
-0.9205885843
-0.6440986249
-0.526542522
-0.806954787
-0.2703966613
0.06970296732
-0.4869241907
-0.08027534608
0.4593672013
-0.8231758911
-0.2563095341
0.3723658303
-0.6972536282
-0.4178858735
-0.5226684758
-0.2712028927
1.610747976
0.3976675577
-0.2023968926
1.164511575
-0.1679572546
-0.007673401478
0.776160277
0.3612183397
-0.2538281702
0.3417764622
-0.3682337916
-0.03676471215
0.06087715866
0.220203253
-0.1931977515
-0.1236777677
-0.2206286085
0.06834150712
-0.3020473146
0.1153074854
0.01978946841
-0.5024270878
-0.477449532
0.03087535597
-0.656873765
0.007768218027
-0.1078804698
-0.6958496913
-0.2320108035
-0.1576476143
-0.6336853732
0.1728369472
-0.2549833273
-0.5631265722
-0.4000952621
-0.2677724417
-0.6411531373
-0.5261243986
-0.4316665283
-0.7826179895
-1.229317007
-0.6186294151
-0.8074939101
-0.9206620473
-0.6069402924
-0.4589425519
-0.6859626599
-0.4316595324
0.04609139846
-0.255136894
-0.2651199953
0.4763007401
-0.5891901811
-0.2627098068
0.57369733
-0.5305074559
-0.2565916998
-0.4684057434
-0.1347735239
1.663157146
0.3128844594
-0.1474946909
1.119687981
-0.367717143
0.01478644369
0.7319366407
0.3688889854
-0.2377061671
0.3678077683
-0.3759276344
-0.0555405782
0.07432720848
0.09710465376
-0.1875019438
-0.1788976196
-0.3617280293
0.07927543384
-0.3620608642
0.1869339456
0.09717969386
-0.4851827772
-0.3435219356
0.06315395983
-0.5960005533
0.1578220821
-0.146717159
-0.6874561399
-0.2009929416
-0.268759157
-0.7485730956
0.09513364811
-0.3229032829
-0.7724091751
-0.5701919438
-0.3027427152
-0.8193604219
-0.6479589112
-0.3477866823
-0.7829866662
-1.224267633
-0.4748442272
-0.6579200597
-0.7414349163
-0.5486728384
-0.3593216471
-0.491104066
-0.5723181881
0.02124975904
-0.008652453783
-0.439912116
0.4479776515
-0.2915697812
-0.2650831586
0.7071023277
-0.2408025706
-0.09623589607
-0.3277801807
0.003727317672
1.649976988
0.2475665527
-0.1122047926
1.110528454
-0.5948380009
0.03079653538
0.6827069882
0.2367714519
-0.2619570737
0.3298860557
-0.5424731911
-0.09708475931
0.08301170785
-0.1002530131
-0.1998081455
-0.1707769093
-0.6612185653
0.04731261812
-0.3679968786
0.04679493335
0.04609031339
-0.4733086568
-0.3649210527
0.02673228447
-0.5849558172
0.1874830675
-0.1994114518
-0.739483918
-0.2753046591
-0.3235552732
-0.881571048
-0.05161954337
-0.3519180421
-0.9547688429
-0.7102110236
-0.2838275686
-0.9052795286
-0.6552097152
-0.2720126199
-0.6898178901
-1.044520827
-0.3506430647
-0.4521913227
-0.488625721
-0.524714448
-0.2295558741
-0.3375116072
-0.7052993075
0.01873018424
0.1640862871
-0.5881766587
0.4140998
-0.05254447964
-0.2695901499
0.7694134937
0.07107747335
0.04218761726
-0.1612399692
0.1062171175
1.628072513
0.2395336253
-0.07356179503
1.146639946
-0.7647705346
0.03411799827
0.6701805227
-0.03749653481
-0.2704279962
0.2876103709
-0.8818437347
-0.1333575372
0.1025842621
-0.3420755774
-0.1699286838
-0.09903303115
-1.041188226
0.002575686287
-0.3031099693
-0.3186921259
-0.04460250161
-0.4399176802
-0.6509717262
-0.05979680495
-0.6398745821
-0.01878615263
-0.2318309162
-0.8589065091
-0.4765549529
-0.3447461842
-1.038097957
-0.1700750167
-0.3279341503
-1.086735443
-0.6831026067
-0.2481670947
-0.923995692
-0.4367660203
-0.1908828375
-0.578235319
-0.7089666624
-0.277200564
-0.2761104715
-0.2314379411
-0.5285713423
-0.120491503
-0.2780614549
-0.8019542722
0.03474710323
0.1955149541
-0.6978213491
0.3743422436
0.09030470244
-0.2953063776
0.7481243845
0.3111638936
0.09820541261
-0.03431051625
0.1609130503
1.502099729
0.2897928608
-0.07120506049
1.098998268
-0.8744337146
0.0212771094
0.6133408241
-0.3747421522
-0.2797979944
0.2113113233
-1.328572436
-0.1300855559
0.07507619535
-0.6170401459
-0.1426406431
-0.0431829395
-1.412601414
-0.03380430889
-0.1964965516
-0.7520165817
-0.1507924676
-0.370949712
-1.11825643
-0.1435197426
-0.6513918026
-0.4328728044
-0.2851594782
-0.9203765901
-0.810661948
-0.3514903665
-1.101397795
-0.2755748152
-0.3164046891
-1.113573287
-0.537644893
-0.213662296
-0.8775987972
-0.06203644391
-0.1396170503
-0.477885958
-0.2869068424
-0.2275129024
-0.1553731795
0.0327929027
-0.5017220958
-0.01589066341
-0.2258121904
-0.7919479328
0.1011857734
0.178947816
-0.7143043534
0.382039783
0.1541366407
-0.3564564524
0.6924855754
0.4404851271
0.04582158529
0.04075039328
0.1251749014
1.364359307
0.3107342149
-0.07979180666
0.990126783
-0.9908419333
-0.02101176133
0.5521172968
-0.6987589489
-0.221370828
0.1831181509
-1.76536214
-0.07127214151
0.04975554021
-0.9287499684
-0.0743003743
-0.01471131418
-1.705025847
-0.04026289701
-0.114989073
-1.075242306
-0.1439003912
-0.2898386641
-1.558685061
-0.1597209545
-0.5994513633
-0.8976226996
-0.2761744348
-0.878596737
-1.186729522
-0.337342942
-1.062729444
-0.4238068286
-0.3017515028
-1.06318136
-0.4433325712
-0.2266273475
-0.8504097296
0.2568173158
-0.144213266
-0.4755099125
0.07943736871
-0.2080261207
-0.1457017808
0.3336582964
-0.4077600199
0.0418473535
-0.06730400023
-0.631654932
0.1874632288
0.2603120197
-0.6121472707
0.4021863146
0.2195381199
-0.4065746212
0.6140614026
0.4856460709
-0.1163278224
0.06641098021
0.01736917982
1.112974495
0.2388641355
-0.1258118765
0.7386972881
-1.192231252
-0.0701362265
0.4064537199
-0.9347739371
-0.1514823972
0.1423580534
-2.065579576
0.02193488088