/*--------------------------------*- C++ -*----------------------------------*\
| =========                 |                                                 |
| \\      /  F ield         | OpenFOAM: The Open Source CFD Toolbox           |
|  \\    /   O peration     | Version:  5.x                                   |
|   \\  /    A nd           | Web:      www.OpenFOAM.org                      |
|    \\/     M anipulation  |                                                 |
\*---------------------------------------------------------------------------*/
FoamFile
{
    version     2.0;
    format      ascii;
    class       volScalarField;
    location    "4.4";
    object      rho;
}
// * * * * * * * * * * * * * * * * * * * * * * * * * * * * * * * * * * * * * //

dimensions      [1 -3 0 0 0 0 0];

internalField   nonuniform List<scalar> 
30538
(
1.277583887
1.289512385
1.28946539
1.28926609
1.28912
1.289047055
1.289043684
1.289110415
1.289296251
1.28953122
1.289762076
1.289952304
1.290118527
1.290257024
1.290475894
1.290766054
1.290751425
1.290415914
1.289996015
1.292265764
1.277592272
1.289496517
1.289443288
1.2892677
1.289139392
1.289052872
1.289027097
1.289082248
1.289262696
1.289509784
1.289768886
1.289985653
1.290145182
1.290265642
1.290458068
1.290700455
1.290694658
1.290415693
1.290062204
1.29231291
1.277663767
1.289449885
1.289419727
1.289279039
1.289159837
1.289056921
1.289020414
1.289070483
1.289238825
1.289480215
1.289744316
1.289972826
1.290127941
1.290243718
1.290414225
1.290586933
1.290597374
1.290403835
1.290144943
1.292437049
1.277693451
1.289403087
1.289425543
1.289328913
1.289201053
1.289090178
1.289071007
1.289133047
1.289279683
1.28947839
1.289706788
1.289922054
1.290076823
1.290209883
1.290369651
1.290489024
1.29050886
1.290395314
1.290226594
1.292482164
1.27792382
1.289392864
1.289453376
1.289382588
1.289248438
1.289151091
1.289174399
1.289259148
1.289368727
1.289489173
1.28964632
1.289834781
1.290007487
1.290181937
1.290335568
1.290399287
1.290413887
1.290372943
1.290284829
1.29264339
1.278085516
1.289440916
1.289469672
1.289388833
1.289289696
1.289236552
1.289288951
1.289376253
1.289433388
1.289475904
1.28957535
1.289755484
1.289969345
1.290181891
1.290303759
1.290311964
1.29030219
1.290322547
1.290307243
1.292645602
1.278547346
1.289539712
1.289449662
1.289332849
1.289325829
1.289328922
1.289371252
1.289422185
1.28942521
1.28942401
1.289504427
1.28970562
1.289982862
1.29020784
1.290266934
1.290203594
1.290176709
1.290247449
1.290287375
1.292770332
1.278857115
1.289650254
1.289406317
1.289263664
1.289362482
1.289415237
1.289408054
1.289396938
1.289368429
1.289366001
1.289465568
1.289698588
1.29001229
1.290213427
1.290208036
1.290113743
1.290083079
1.290176071
1.290229386
1.292701225
1.279494285
1.289709374
1.289397698
1.289251944
1.289401186
1.289472793
1.289422724
1.289375186
1.289343653
1.289363781
1.289476802
1.289703072
1.289987483
1.290152864
1.290135786
1.290077418
1.290073395
1.290144216
1.290152497
1.292725846
1.279871007
1.289683082
1.28944349
1.289326304
1.289441023
1.289488826
1.289434026
1.289402074
1.289403524
1.289440868
1.289535337
1.28970575
1.289903196
1.2900281
1.290064283
1.290099966
1.290145247
1.290160294
1.290081403
1.292585315
1.280643493
1.289609729
1.289531537
1.289462876
1.289476862
1.289464137
1.289441838
1.289463963
1.289507616
1.289546855
1.289605363
1.289697153
1.289800055
1.289901841
1.290009439
1.29014315
1.290224907
1.290189207
1.290040495
1.292505821
1.281121648
1.289555787
1.289623019
1.28959995
1.289506442
1.289426806
1.289434104
1.289501334
1.289572018
1.289615596
1.289658181
1.289708907
1.289763401
1.289848696
1.289988719
1.290148392
1.290234219
1.290177961
1.290018476
1.292336969
1.282126786
1.289558567
1.289703763
1.289696975
1.289525508
1.289398549
1.28942378
1.289497326
1.289566256
1.289623073
1.289686983
1.289747976
1.289801707
1.289878469
1.289997085
1.290115245
1.290170955
1.290104542
1.289968929
1.292137029
1.282775534
1.289616049
1.289759423
1.289737056
1.289535493
1.289402746
1.289433687
1.289480117
1.289519183
1.289604026
1.289704848
1.289795634
1.289869204
1.289944479
1.290025242
1.290066278
1.290068178
1.289992997
1.289881616
1.291925436
1.283979065
1.289697893
1.289786496
1.289732815
1.289544312
1.289440519
1.28947223
1.289483167
1.289498666
1.289603312
1.289720791
1.289815462
1.289897941
1.289976672
1.290047358
1.290047061
1.289998382
1.289892757
1.289781439
1.291573294
1.28470738
1.289751577
1.289787662
1.289710342
1.289568024
1.289505624
1.289524264
1.289514246
1.289546186
1.289656902
1.289749603
1.289807304
1.2898598
1.289944902
1.290036551
1.290052294
1.289985989
1.289848405
1.289715287
1.291316079
1.286002867
1.289771794
1.289770199
1.289698426
1.289619789
1.289578127
1.289563502
1.289560872
1.289637913
1.289746314
1.289788304
1.289780674
1.289786544
1.289863344
1.289984129
1.290057221
1.290005331
1.289855361
1.289705491
1.290845699
1.286759791
1.289767763
1.289747339
1.289702915
1.289688263
1.289647716
1.289586507
1.289595081
1.2897147
1.289812642
1.289821036
1.289776474
1.289745321
1.289796143
1.28991003
1.290018671
1.289999103
1.289871215
1.28973541
1.290607247
1.288174045
1.289723899
1.28972076
1.289637039
1.289715383
1.289604782
1.289578067
1.289549367
1.289725773
1.289791635
1.28982253
1.289772512
1.289754157
1.289757713
1.289845689
1.289917924
1.289941446
1.289857477
1.289785928
1.29011758
1.294891683
1.279085034
1.291103955
1.276027998
1.287644223
1.275141903
1.285895301
1.276501419
1.286127974
1.279538277
1.288045239
1.283421461
1.290732964
1.286905682
1.292835428
1.288921601
1.293539319
1.289136047
1.292798818
1.288110047
1.275214693
1.289449808
1.289440909
1.289290917
1.289189906
1.289132089
1.289146318
1.289227679
1.289390804
1.289594716
1.289814568
1.290021189
1.290221633
1.29040211
1.290529414
1.290589933
1.290514905
1.290352672
1.290198654
1.29346609
1.275232637
1.289470722
1.289451122
1.289307475
1.289219264
1.289160906
1.289162571
1.289226192
1.289379106
1.28958526
1.289814588
1.29003037
1.290225901
1.290395378
1.290526786
1.290599603
1.29052886
1.290353943
1.290184213
1.293492629
1.275298929
1.289468353
1.289453708
1.289326731
1.289248904
1.289187051
1.289178298
1.289227565
1.289366964
1.289565796
1.289793132
1.290007435
1.29019059
1.290346494
1.290488314
1.290579213
1.290520965
1.290337427
1.290147779
1.293567295
1.275345638
1.289451061
1.289462448
1.289362513
1.289286358
1.289222737
1.289215252
1.289262926
1.28938887
1.289565574
1.289771744
1.289970169
1.290138316
1.290281711
1.290429687
1.29053845
1.290498665
1.2903214
1.290125855
1.293618883
1.275553751
1.289436534
1.289476641
1.289398238
1.289320731
1.289261251
1.289267991
1.289325831
1.28943882
1.289578606
1.289744715
1.289917133
1.290074843
1.290216305
1.290358613
1.290466423
1.290448219
1.290300931
1.290124942
1.29377536
1.275737335
1.2894443
1.289485612
1.289416641
1.28934501
1.289302435
1.289329552
1.289392231
1.289482571
1.289577238
1.289705901
1.289862776
1.290024629
1.290171876
1.290293676
1.290374812
1.290368542
1.290267786
1.290132535
1.293851246
1.276177306
1.28947975
1.289484905
1.289406946
1.289367176
1.2893515
1.289387178
1.289437309
1.289493998
1.289550072
1.289654165
1.289808328
1.289992
1.29015143
1.29024906
1.290286024
1.290275126
1.29021893
1.29012871
1.293990184
1.276544002
1.289526488
1.289478403
1.289392252
1.289397887
1.289408927
1.289439232
1.289459706
1.289477768
1.289514246
1.289606639
1.289763413
1.289967127
1.290140178
1.290222751
1.290227229
1.290202818
1.290166833
1.290102627
1.293983494
1.277215016
1.289557661
1.289484422
1.289403736
1.289437886
1.289461272
1.289474415
1.289471791
1.289472954
1.289505355
1.289587817
1.289730246
1.289924473
1.290104641
1.290197382
1.290204698
1.290172463
1.290127182
1.290060808
1.293986055
1.2777411
1.289561178
1.289508641
1.289446789
1.28947847
1.289487914
1.289482976
1.289484905
1.289503531
1.289539514
1.289607131
1.289715293
1.289870547
1.290040235
1.290155419
1.290198749
1.290174247
1.290108712
1.29001891
1.293850281
1.278644436
1.289562899
1.289550532
1.289509287
1.289511547
1.289482749
1.289470149
1.289499473
1.289553732
1.289599113
1.289644995
1.289710859
1.289821198
1.2899697
1.290100635
1.290181581
1.290173563
1.290098764
1.289994508
1.293682678
1.27934453
1.289579743
1.28960064
1.289568631
1.289533847
1.289468915
1.289454732
1.289504425
1.28958271
1.28963702
1.289678009
1.289724801
1.289808961
1.289931841
1.290056707
1.290143804
1.290143187
1.290074487
1.289979476
1.293455034
1.280513786
1.289614112
1.289650343
1.289614237
1.289545298
1.289468002
1.28946138
1.28950591
1.289578268
1.289641577
1.28969518
1.289748715
1.289829661
1.289936004
1.290038545
1.290101046
1.290088077
1.290031324
1.289956218
1.293111571
1.281380458
1.289656612
1.289690942
1.289641676
1.289551702
1.289487431
1.289492697
1.289513559
1.289561806
1.289634514
1.289706994
1.289777889
1.289864114
1.289957581
1.290037081
1.290065246
1.290032358
1.289978538
1.289917882
1.292812405
1.282754493
1.289698801
1.289720144
1.289654939
1.289558825
1.289515417
1.289533552
1.289534144
1.289561917
1.28963932
1.289723952
1.289798632
1.289876781
1.289957348
1.290025074
1.290037601
1.289996791
1.289937663
1.289878053
1.292303895
1.283712987
1.28973238
1.289734197
1.289661446
1.289576939
1.289550212
1.289565658
1.289560735
1.289591088
1.289670208
1.289751073
1.289813725
1.289864929
1.289924762
1.289982326
1.290003052
1.289975692
1.289915794
1.289855217
1.291965455
1.285220093
1.289757972
1.289733587
1.289664127
1.289615617
1.289593718
1.289588336
1.289589781
1.289637611
1.289712045
1.289778761
1.289819885
1.289839557
1.289866825
1.289911996
1.289949135
1.289948767
1.289906213
1.289850712
1.291342204
1.286220253
1.289772023
1.289724891
1.289672082
1.289666893
1.289648651
1.289617637
1.289619286
1.289674939
1.289740661
1.289794315
1.289823415
1.289823978
1.289824255
1.289844284
1.289881637
1.289900854
1.289887669
1.289850947
1.291019894
1.287859809
1.289736012
1.289709915
1.289601192
1.289678118
1.28958991
1.289609636
1.289567153
1.289671885
1.289707647
1.289786777
1.289799776
1.289818707
1.289796468
1.289821925
1.289824685
1.289870826
1.289851609
1.289843709
1.290346439
1.294618692
1.278366363
1.290005866
1.274613614
1.28578704
1.273414815
1.283787346
1.274952869
1.284480963
1.27856787
1.287297638
1.28310335
1.290944875
1.287108278
1.293820698
1.289284182
1.294796685
1.28919318
1.293798936
1.287744025
1.272705986
1.289382453
1.28943314
1.289351105
1.289296163
1.289246806
1.289277662
1.289375774
1.289520249
1.28968538
1.289876946
1.290079171
1.29028173
1.290459845
1.290508275
1.290404953
1.290290793
1.290258124
1.290313725
1.296507043
1.272715925
1.28943528
1.289474084
1.289376267
1.289327916
1.289295901
1.289333268
1.289411914
1.289534241
1.289687897
1.289873999
1.290071016
1.290268016
1.290443782
1.290517727
1.290464878
1.290354325
1.290266153
1.290255387
1.296504117
1.27281404
1.289475438
1.289492463
1.289385631
1.289357023
1.28934757
1.28938088
1.289432512
1.289533605
1.289675759
1.289855222
1.290043181
1.29022709
1.29038881
1.290489767
1.290504627
1.290404776
1.290250291
1.290148084
1.296651708
1.272832598
1.289489806
1.289491468
1.28939018
1.289386617
1.289393004
1.289409741
1.289440652
1.289532286
1.289670508
1.289844709
1.290020905
1.290183751
1.290319801
1.290430422
1.290499549
1.290421517
1.290223603
1.290054328
1.296658128
1.27308775
1.289477166
1.289485928
1.289402262
1.289410137
1.289414225
1.289410546
1.289435888
1.28953322
1.289676127
1.289841318
1.290000316
1.290138779
1.29024351
1.290347036
1.290447494
1.290396093
1.290195924
1.289999264
1.296957928
1.273212992
1.289450362
1.289495229
1.289435783
1.289427231
1.289410546
1.289404901
1.289438619
1.289546131
1.289684564
1.289829907
1.289963293
1.290081428
1.290175365
1.290272912
1.290376352
1.290348006
1.290169949
1.289981856
1.296969048
1.273726077
1.28942405
1.289521205
1.289487966
1.289442514
1.289407797
1.289425117
1.289472016
1.289572743
1.289687547
1.289799622
1.289903194
1.290007431
1.290118421
1.290232821
1.290323665
1.290297675
1.290142351
1.289978942
1.297248823
1.274034253
1.289407061
1.289553659
1.289540656
1.28946154
1.289422014
1.289478569
1.289536324
1.289604905
1.289677924
1.289753919
1.289830641
1.289931108
1.290080499
1.29022748
1.290303186
1.290257801
1.290107636
1.289967535
1.297142591
1.274871364
1.289417339
1.289575749
1.289571862
1.289490823
1.289454964
1.289525831
1.28958262
1.289622653
1.289662485
1.289713242
1.289774744
1.289877186
1.290053841
1.290230315
1.290287309
1.290216271
1.290065862
1.289949504
1.297177741
1.275389503
1.289457167
1.289581261
1.289573406
1.289520417
1.289487246
1.289538041
1.28957982
1.289615151
1.289648733
1.289694244
1.289752952
1.289859559
1.290036094
1.290198821
1.290241553
1.290155364
1.290016248
1.289932429
1.296876525
1.276598269
1.289533179
1.289580896
1.289553805
1.289540487
1.289504566
1.28951396
1.289545824
1.289594933
1.289643728
1.289698872
1.289759091
1.289865563
1.290014667
1.29013579
1.290159579
1.290078601
1.28997149
1.289926419
1.296605178
1.277323555
1.289609358
1.289584812
1.289531471
1.289545964
1.289521548
1.289503241
1.289521769
1.289581251
1.289644319
1.289707511
1.28976984
1.289871409
1.289991135
1.290069278
1.290078063
1.290012088
1.289944705
1.289933238
1.296140034
1.278864185
1.289660216
1.28959536
1.289524267
1.28954429
1.289547656
1.289529397
1.289530715
1.28958289
1.289648934
1.289709774
1.289770078
1.289860979
1.289960663
1.290022271
1.290031108
1.289980194
1.289942883
1.289947355
1.295542109
1.279730623
1.289668469
1.289612485
1.289538577
1.289548918
1.289575502
1.289574144
1.289563696
1.289602322
1.289659668
1.289712928
1.289766818
1.289841926
1.289929465
1.289991796
1.290012685
1.289981113
1.289960391
1.289959993
1.29494936
1.281521769
1.289668807
1.289635483
1.28957162
1.289566229
1.289590125
1.289598831
1.289593855
1.289627417
1.289675486
1.289725695
1.289774639
1.289829233
1.289895735
1.289955531
1.28999365
1.289989475
1.289977855
1.289963595
1.29410939
1.282491151
1.289682989
1.289658712
1.289606238
1.289590023
1.289596983
1.289601004
1.289610699
1.289644384
1.289688223
1.289746251
1.289798297
1.289836974
1.289868929
1.289901012
1.289937387
1.289956702
1.289971311
1.289957642
1.29349573
1.284477848
1.289722732
1.289678205
1.289627399
1.289618675
1.289610301
1.289605424
1.289622933
1.289649854
1.289688089
1.289757098
1.28982376
1.289856753
1.289849818
1.289835926
1.289846152
1.289882008
1.289925443
1.289930851
1.292507984
1.285493234
1.28976238
1.289690755
1.289638705
1.289647015
1.289641816
1.28963864
1.289649003
1.289654547
1.289681362
1.289752675
1.289829925
1.289862259
1.289838367
1.289791924
1.289766519
1.289799433
1.289862267
1.289894109
1.291912854
1.287628504
1.289725275
1.289699425
1.289537633
1.289638615
1.289543752
1.289647184
1.289582527
1.289641956
1.289638872
1.28973966
1.289798596
1.289852235
1.289834561
1.289810446
1.289766751
1.289794271
1.289819723
1.289845576
1.290846256
1.296091943
1.275679275
1.290712084
1.27124571
1.285747621
1.2701815
1.283470979
1.272753125
1.284416876
1.277841174
1.287798763
1.2839605
1.292029804
1.289281493
1.295207425
1.292126895
1.295790702
1.291669617
1.293745978
1.289348661
1.265207149
1.289286431
1.289467248
1.289433849
1.289398694
1.289347416
1.289388359
1.289496115
1.289630743
1.289762472
1.289916641
1.29008277
1.290242525
1.290369803
1.290375971
1.290247576
1.290164074
1.290174141
1.290307919
1.30118098
1.265182125
1.289338532
1.289511314
1.289458397
1.289426067
1.289405031
1.28946511
1.289556425
1.289662714
1.289770386
1.289907027
1.290064167
1.290225723
1.290360608
1.290395608
1.290317346
1.290231047
1.290181976
1.290249051
1.301282823
1.265162011
1.289383862
1.289523704
1.289448512
1.289443212
1.2894674
1.289536619
1.289597628
1.289670931
1.289757977
1.289884689
1.290033709
1.29019261
1.29032407
1.290387331
1.290370277
1.290281223
1.290159414
1.290131537
1.301527306
1.265134926
1.289418135
1.289502399
1.289415155
1.289460335
1.289520992
1.289572557
1.289594738
1.289651436
1.289741636
1.289875748
1.290022044
1.290172784
1.290287468
1.290353039
1.290373407
1.290287651
1.290116765
1.290022867
1.301810333
1.265233558
1.289416965
1.289482032
1.289406142
1.289482092
1.289544711
1.289553715
1.289549084
1.28961292
1.289731647
1.28988169
1.29002185
1.290155417
1.290244349
1.290296409
1.290328528
1.290252768
1.290075478
1.289957483
1.302238523
1.265368143
1.289388286
1.289498485
1.28945724
1.289510562
1.289531043
1.289508697
1.289507872
1.289593283
1.289737052
1.289882814
1.290000238
1.290109745
1.29018989
1.290241058
1.290265233
1.290206223
1.290048869
1.289938532
1.302554948
1.265792594
1.289340479
1.289555637
1.289555753
1.289534178
1.289499463
1.289496676
1.289523576
1.289624331
1.28975573
1.289866472
1.289946609
1.290027228
1.290122111
1.290202871
1.290228976
1.290177749
1.290035424
1.289940761
1.302859017
1.266266935
1.289304852
1.289622589
1.28964883
1.289541427
1.289472302
1.289530424
1.289601984
1.289690101
1.289767396
1.289827969
1.289874161
1.289936147
1.290060988
1.290184211
1.290219806
1.290164003
1.290019762
1.28993913
1.302915439
1.26721742
1.289321232
1.289656299
1.28967808
1.289540456
1.289471905
1.289573025
1.289666635
1.289725499
1.289752368
1.289781299
1.289821503
1.28988595
1.290025731
1.290169966
1.290200877
1.290127338
1.289981442
1.28992705
1.302801554
1.268171269
1.289392752
1.289644575
1.289636717
1.289542155
1.289497372
1.289588607
1.289660131
1.289691968
1.289704711
1.289744329
1.289809658
1.289896185
1.290021822
1.290128976
1.290139704
1.290051803
1.289917594
1.289899042
1.302429172
1.269750121
1.289501738
1.28961026
1.289565591
1.289544776
1.289533606
1.28957555
1.289604404
1.289618101
1.289651965
1.289726912
1.289826883
1.289932232
1.2900191
1.290065456
1.290049062
1.289958715
1.289858339
1.289877236
1.30176063
1.271121978
1.289596884
1.28958281
1.289506594
1.289541488
1.289573831
1.289576606
1.289566227
1.289570478
1.289626508
1.289723194
1.289829545
1.289930666
1.289990559
1.290000419
1.289978125
1.28990344
1.289841713
1.289877519
1.300985633
1.273211446
1.289637174
1.289570518
1.289482763
1.289537555
1.289606073
1.28960871
1.289573487
1.289580489
1.289637796
1.289722694
1.28980361
1.289876897
1.289928948
1.289946279
1.289946876
1.289906196
1.289876401
1.289913853
1.299814952
1.27484118
1.289617713
1.289571803
1.289497208
1.289547346
1.28962417
1.289640632
1.289612793
1.289630617
1.289671618
1.289723859
1.289766578
1.28980724
1.289855292
1.289903005
1.289944023
1.2899451
1.289939083
1.289965552
1.298791666
1.277300683
1.289596047
1.289583608
1.289541325
1.289580275
1.289623379
1.289636012
1.289640397
1.289679446
1.289702637
1.289728526
1.289747975
1.28976268
1.289800731
1.289859075
1.28993129
1.289963542
1.289977173
1.289992628
1.297259384
1.279072869
1.289607505
1.289606835
1.289591768
1.289618459
1.289615571
1.289611368
1.289646362
1.289693903
1.28971296
1.289735597
1.289757372
1.289769932
1.289785658
1.289818777
1.289882623
1.289923775
1.289959259
1.289970337
1.296176174
1.28181354
1.289663968
1.289638492
1.289626856
1.289643092
1.289614586
1.28960104
1.289645481
1.289682243
1.289700097
1.289737298
1.289778938
1.289803805
1.289800192
1.289792324
1.289812684
1.289846762
1.289886621
1.289895478
1.294420193
1.283597101
1.289724181
1.289671143
1.28964466
1.289650735
1.289631869
1.289641849
1.289671157
1.289676576
1.289684842
1.289725268
1.289780103
1.289816943
1.289813448
1.28978111
1.289763658
1.289776526
1.289813233
1.289814648
1.293393199
1.286501172
1.289682999
1.28968593
1.289488223
1.289576813
1.28945741
1.28961867
1.289560128
1.289629366
1.289614355
1.289702304
1.289745766
1.289821549
1.289832626
1.289835322
1.28979879
1.289809987
1.289792131
1.289774835
1.291564996
1.295284014
1.273074222
1.287121676
1.266305171
1.279531733
1.264274255
1.27629834
1.267592307
1.278877996
1.274747497
1.285484593
1.283303472
1.293164425
1.290528903
1.299052051
1.293967123
1.300597663
1.29241741
1.297459956
1.288300083
1.258792142
1.289218581
1.289509337
1.289484245
1.28946955
1.289428175
1.289471038
1.289570502
1.28969004
1.289786048
1.289893609
1.290011537
1.290126664
1.290208599
1.290202795
1.290129525
1.290093171
1.290106438
1.290225735
1.30905497
1.258679961
1.289249886
1.289542261
1.28951198
1.289495
1.28947769
1.289543873
1.289636359
1.289730267
1.289797003
1.289883988
1.289995344
1.290114331
1.290200861
1.29021682
1.290179554
1.290142045
1.290108031
1.290184955
1.309222784
1.258579722
1.289276022
1.289547263
1.289500766
1.289502357
1.2895289
1.289614383
1.289684302
1.289742318
1.289786423
1.289865425
1.289973681
1.290092346
1.290181576
1.290216309
1.290209904
1.290162516
1.290073869
1.290095423
1.309855631
1.258338289
1.289307846
1.28952887
1.289463015
1.289507067
1.289574114
1.289654892
1.289684144
1.289712713
1.289764097
1.289864975
1.289980791
1.290094268
1.290174311
1.290207033
1.290206422
1.290144911
1.290021623
1.290012009
1.310286819
1.25839678
1.289323867
1.28951559
1.289454894
1.289528329
1.289601025
1.289645918
1.289631945
1.289655382
1.289743461
1.289874469
1.289994777
1.290100186
1.290170064
1.290185325
1.290161312
1.290088381
1.289969692
1.289960112
1.311282007
1.258336447
1.289310507
1.28953748
1.289509901
1.289569368
1.289609073
1.289604797
1.289576342
1.289618663
1.289739895
1.289876039
1.289983011
1.290080644
1.29014939
1.290153961
1.2900979
1.2900223
1.289935802
1.289949819
1.311665487
1.25885773
1.289295194
1.28960121
1.28960808
1.289609729
1.289593432
1.28958251
1.289578699
1.289644435
1.289755059
1.289892943
1.289937149
1.290026457
1.290106462
1.29011897
1.290043557
1.289976291
1.289926937
1.289966953
1.312396882
1.259226998
1.289294669
1.289671758
1.28969208
1.289622698
1.289561652
1.289590756
1.28964199
1.28971625
1.289774955
1.289828992
1.289882191
1.289961677
1.290054645
1.290078286
1.29000874
1.289954009
1.289924904
1.289981749
1.312309541
1.260524337
1.289340192
1.289698928
1.289702127
1.289606449
1.289545518
1.289618219
1.289705108
1.289764313
1.289769312
1.289785758
1.289839603
1.289929094
1.290019646
1.290035308
1.289974944
1.289929447
1.28990226
1.289965688
1.312212457
1.261499463
1.289399202
1.289667894
1.289641403
1.289586342
1.289561259
1.289639061
1.289711171
1.289740795
1.2897226
1.28974625
1.28983261
1.289944036
1.290008853
1.28999365
1.289932627
1.289888043
1.289852898
1.289908831
1.311396744
1.263708673
1.289471111
1.289619932
1.289572598
1.289578317
1.289601884
1.289644697
1.289660841
1.289655158
1.289660403
1.289726118
1.289849465
1.2899636
1.28999532
1.28995053
1.289891216
1.289846955
1.289801499
1.289840714
1.310258805
1.265203112
1.289520197
1.289591924
1.289533809
1.289575984
1.289637024
1.289651045
1.28962214
1.289592794
1.289627053
1.289724858
1.289848781
1.289935104
1.289949045
1.28990628
1.289872375
1.289844663
1.289789739
1.289803194
1.308808011
1.268216822
1.289555851
1.289593772
1.289529826
1.289568997
1.289646005
1.28966297
1.28962058
1.289601205
1.289640058
1.289730045
1.289817092
1.289859613
1.289864449
1.289858273
1.289876446
1.289878164
1.289829721
1.289829071
1.30676979
1.270037244
1.289551017
1.289603032
1.289549599
1.289572438
1.289634874
1.289664303
1.289652068
1.289662089
1.2896832
1.28972783
1.289765189
1.289769268
1.289775384
1.289813493
1.289883347
1.289912982
1.289886913
1.289889669
1.304984079
1.273657683
1.289559076
1.289605083
1.289580116
1.289598176
1.289617706
1.289644021
1.289678542
1.289722769
1.289719603
1.289719727
1.289719972
1.289707389
1.28972071
1.28978016
1.289872315
1.289912437
1.289907735
1.289925406
1.302354029
1.275631713
1.289568149
1.289606352
1.289613281
1.289634135
1.289613476
1.289624084
1.289684175
1.289736531
1.289730783
1.289710905
1.289698883
1.289697593
1.289721999
1.289775953
1.289849691
1.289871978
1.289876656
1.289907332
1.30049919
1.27960374
1.289618237
1.289630822
1.289648003
1.28965974
1.289621872
1.289622495
1.289672884
1.289711682
1.289722037
1.289714522
1.289706582
1.289719618
1.289753881
1.289792731
1.289828743
1.289821962
1.289816309
1.289835623
1.297537367
1.281540251
1.289671616
1.289676694
1.289684568
1.289670866
1.289641219
1.289656037
1.289682707
1.289697797
1.289719092
1.289724052
1.289720072
1.289738593
1.289778093
1.289806884
1.289815957
1.289790625
1.289769905
1.289763797
1.29578729
1.285707661
1.289579768
1.289702122
1.289415521
1.289585407
1.289329805
1.289598573
1.28948633
1.289644705
1.289639605
1.289724283
1.289724788
1.28978017
1.289832686
1.289875668
1.289878936
1.289849565
1.289798583
1.289755651
1.292795317
1.29814301
1.266843459
1.287926413
1.25804895
1.278378854
1.256212617
1.274416494
1.262199189
1.277883436
1.273031007
1.286191804
1.285421593
1.29574399
1.29604034
1.302825281
1.301437134
1.303601634
1.298888685
1.297709173
1.292293154
1.24468761
1.28894559
1.289535855
1.289502445
1.28951138
1.289519599
1.289542195
1.289584934
1.28966794
1.289751866
1.289831304
1.289905167
1.289997692
1.290074241
1.290087853
1.290056321
1.290047305
1.290033873
1.290122504
1.321155888
1.244432234
1.288966637
1.289558673
1.289534232
1.289537657
1.289539751
1.289584204
1.289648975
1.28972627
1.28977626
1.289827678
1.289899065
1.289989443
1.290061526
1.290082374
1.290070869
1.290064833
1.290031241
1.290108596
1.321744955
1.243890483
1.288983003
1.289574449
1.289548031
1.289540942
1.28954633
1.289619996
1.289691796
1.289750844
1.289779671
1.289823631
1.289898736
1.289981826
1.290036282
1.290057139
1.290063364
1.29005511
1.289999661
1.290054692
1.322957955
1.243321759
1.289012122
1.2895945
1.289552202
1.289542595
1.289559114
1.289644476
1.289699164
1.289731107
1.28976232
1.289836341
1.289926615
1.289998906
1.29002887
1.290035507
1.290035138
1.290019433
1.289960799
1.290007225
1.324459885
1.242709687
1.289022309
1.289609566
1.289566632
1.28956743
1.289589893
1.289656888
1.289669217
1.289680833
1.289735729
1.289849457
1.289954406
1.290020038
1.290033462
1.290020033
1.289990847
1.289960467
1.289920749
1.289974512
1.326263583
1.242428638
1.289012525
1.289625502
1.289602763
1.289617034
1.289637114
1.289656264
1.289632193
1.28964211
1.28972287
1.289932819
1.289951647
1.290014405
1.290033588
1.29000882
1.289939467
1.289894686
1.289887127
1.289956212
1.327735757
1.24253611
1.289017674
1.289665068
1.289663324
1.28966895
1.289672714
1.289656703
1.289627513
1.289650388
1.289778838
1.294337587
1.289920175
1.289979944
1.29001382
1.289992248
1.289891265
1.289839679
1.289866763
1.289952013
1.328932179
1.243114017
1.289062058
1.289710384
1.28971216
1.289693291
1.289676321
1.289658653
1.289657282
1.289704914
1.289762784
1.2905586
1.289847992
1.289934342
1.289988513
1.289968394
1.289852295
1.28980509
1.289852698
1.289943886
1.329359661
1.244524855
1.289133572
1.28972114
1.2897119
1.289680922
1.289664671
1.289668272
1.289696431
1.289746165
1.289772446
1.289785186
1.289800703
1.289901611
1.289971945
1.289938273
1.289818036
1.289781843
1.2898298
1.289916456
1.329002901
1.246273321
1.289174828
1.28968243
1.289669907
1.289665178
1.289672625
1.289682347
1.289704813
1.289744137
1.289749279
1.28975328
1.289782179
1.289898532
1.289963683
1.28991228
1.289796696
1.289768743
1.28979707
1.289853029
1.327825914
1.249195792
1.289212108
1.289629063
1.289633293
1.289669041
1.28970392
1.28969508
1.289677669
1.28969244
1.289715091
1.289741963
1.289801526
1.289894488
1.289942728
1.289886382
1.28979086
1.289771979
1.289771399
1.289779021
1.325579897
1.251975062
1.289246786
1.289612999
1.289627219
1.289678591
1.289717423
1.289689187
1.289646898
1.289652599
1.289698257
1.28975131
1.289807325
1.289863126
1.289890779
1.289853351
1.289801416
1.289803817
1.289771716
1.28973108
1.322915765
1.25625886
1.289331807
1.289641849
1.289641576
1.289672056
1.289698261
1.289667163
1.289636568
1.289659667
1.289707269
1.289753403
1.289785034
1.289800205
1.289809693
1.289809903
1.289819804
1.289847695
1.289798175
1.2897339
1.319092622
1.259733597
1.28942147
1.289678485
1.289655636
1.289653373
1.289659156
1.28964347
1.289659839
1.289711385
1.289735366
1.289740819
1.289737539
1.289732426
1.289738005
1.289769469
1.289835148
1.289874875
1.28982595
1.289768718
1.315664749
1.264933194
1.289513222
1.289687977
1.289655794
1.289643494
1.289629586
1.289630756
1.289699857
1.289774687
1.289754717
1.289709593
1.289684186
1.289682201
1.289701586
1.289753096
1.289837294
1.289866587
1.289825302
1.289809901
1.310965316
1.268567352
1.289550999
1.289664209
1.289653185
1.289646103
1.289627259
1.289649019
1.289727363
1.289783712
1.289744324
1.289680993
1.289655552
1.289672197
1.28971076
1.289766044
1.289833598
1.289833254
1.289799782
1.289828614
1.307628422
1.274198332
1.289595964
1.289658034
1.289669859
1.289655366
1.28964872
1.289686162
1.289722871
1.28973431
1.289714417
1.289685253
1.289670097
1.289692366
1.289742815
1.289797148
1.289831138
1.289798524
1.289770829
1.28983223
1.30263649
1.277629145
1.289635381
1.289693615
1.289709163
1.289673446
1.289669994
1.289717283
1.289707953
1.289684583
1.289702213
1.289721435
1.289713523
1.289723266
1.289771367
1.289821896
1.289825726
1.289776336
1.289757858
1.289821243
1.299723666
1.283460681
1.289474231
1.289677843
1.289228565
1.289460567
1.289070433
1.28942327
1.289292957
1.289502341
1.289567543
1.289736032
1.289746281
1.289809536
1.289867863
1.289925278
1.289908932
1.28983369
1.28980709
1.289816033
1.294732348
1.297002011
1.261090551
1.281265861
1.247496063
1.266128901
1.243719958
1.259761049
1.251869501
1.267138939
1.267579881
1.282268403
1.285270402
1.299007519
1.300229109
1.312145504
1.307230481
1.315031755
1.301755112
1.306104841
1.290633837
1.231249562
1.288600881
1.289581994
1.289560436
1.28957915
1.289629119
1.289634366
1.289585505
1.289600873
1.289699652
1.289825914
1.28990017
1.289933346
1.289960416
1.289993311
1.290018255
1.290034859
1.290001245
1.290043612
1.337796266
1.230581101
1.288614391
1.289600317
1.289593102
1.289601413
1.289612256
1.289624107
1.28964307
1.289704701
1.28976514
1.2898205
1.289873931
1.28992723
1.289966509
1.289992325
1.290014583
1.290025299
1.289986215
1.290037088
1.338830833
1.229543784
1.288631188
1.289636724
1.289623897
1.289604617
1.289565935
1.289597821
1.289680339
1.289771572
1.289795764
1.289806804
1.289855657