/*--------------------------------*- C++ -*----------------------------------*\
| =========                 |                                                 |
| \\      /  F ield         | OpenFOAM: The Open Source CFD Toolbox           |
|  \\    /   O peration     | Version:  5.x                                   |
|   \\  /    A nd           | Web:      www.OpenFOAM.org                      |
|    \\/     M anipulation  |                                                 |
\*---------------------------------------------------------------------------*/
FoamFile
{
    version     2.0;
    format      ascii;
    class       volScalarField;
    location    "8";
    object      T;
}
// * * * * * * * * * * * * * * * * * * * * * * * * * * * * * * * * * * * * * //

dimensions      [0 0 0 1 0 0 0];

internalField   nonuniform List<scalar> 
30538
(
278.2676282
273.0800831
273.008904
273.0104856
273.0119107
273.0119488
273.0173573
273.0199199
273.0252734
273.0307485
273.0340864
273.0321908
273.0294546
273.0301786
273.0334015
273.0335677
273.02948
273.0230734
272.9982396
271.6760357
278.2711586
273.0764937
273.0019535
273.002698
273.0065383
273.0091079
273.0150268
273.0164321
273.0199462
273.0233918
273.0259973
273.0256971
273.0249651
273.0258911
273.027492
273.0260312
273.0219431
273.0170614
272.9943665
271.6794599
278.216938
273.0780187
273.0011816
273.0010158
273.007324
273.0112907
273.0171083
273.0183096
273.021134
273.0223067
273.0232912
273.0240677
273.0253571
273.0266312
273.0268646
273.0244767
273.0205966
273.0165779
272.995736
271.6638571
278.2227563
273.0782619
273.0014961
273.0013785
273.0087738
273.0126083
273.0174585
273.0192702
273.0224889
273.0220015
273.0209318
273.0213856
273.023709
273.0252841
273.025396
273.0234548
273.0203548
273.0162603
272.9956565
271.6745764
278.0697337
273.0732559
273.0028393
273.0035771
273.0105964
273.0134078
273.0169289
273.0197118
273.0236667
273.0222504
273.0191402
273.018092
273.0196425
273.0213186
273.0224757
273.0226987
273.0209082
273.0161054
272.9938225
271.6247582
278.0400185
273.068177
273.0049493
273.0070547
273.0127039
273.0142451
273.0166586
273.019457
273.0235321
273.022047
273.0181619
273.0152427
273.0148323
273.0158612
273.0182939
273.0209796
273.021106
273.016471
272.9934825
271.6501031
277.7755771
273.0612796
273.0072611
273.0104542
273.014723
273.015554
273.0172257
273.0185726
273.0213089
273.0203032
273.0173671
273.013469
273.0111046
273.0110074
273.0137969
273.0178238
273.0201835
273.0171599
272.9953659
271.5975949
277.7283144
273.0595025
273.0091079
273.0125317
273.0156723
273.0164847
273.0180442
273.0172546
273.0174683
273.0171592
273.0159563
273.0122945
273.0090434
273.0079851
273.0102809
273.0143533
273.0184987
273.0178416
272.9990983
271.6559249
277.3526548
273.0547275
273.0092723
273.0122095
273.0148918
273.0160866
273.0180743
273.0159321
273.0140084
273.0135524
273.0136647
273.0110703
273.00801
273.0064495
273.0087369
273.0126741
273.0170483
273.0176304
273.0011399
271.618644
277.289818
273.0527584
273.0076953
273.0104298
273.0130321
273.0143916
273.0168576
273.0145581
273.0118792
273.0102905
273.0104902
273.0092125
273.007194
273.0058707
273.0090326
273.0131528
273.0164136
273.01614
273.0007332
271.7235005
276.795858
273.0444944
273.0059017
273.0090016
273.0121091
273.0128212
273.014419
273.0126791
273.0107736
273.0076321
273.007371
273.0073933
273.0065519
273.0058481
273.0103664
273.0152212
273.0164633
273.0138389
272.9983853
271.7147095
276.7278877
273.0400243
273.0054873
273.0089662
273.0124207
273.0121027
273.011194
273.0099992
273.0091334
273.0056056
273.0051271
273.0063407
273.006694
273.0070589
273.0114063
273.015664
273.0157803
273.012007
272.9976175
271.868442
276.1030579
273.0310836
273.0060448
273.0090695
273.0126495
273.0117028
273.0079762
273.0065825
273.0067121
273.0043538
273.0045632
273.0061401
273.0082329
273.0089735
273.0112445
273.0132077
273.0133887
273.0116453
273.0000745
271.8873417
276.0429603
273.0281728
273.0064176
273.007805
273.0105811
273.0105778
273.0057889
273.0036468
273.0040097
273.0040564
273.005034
273.0061905
273.0094604
273.0105039
273.0100929
273.0093072
273.0098398
273.011782
273.0043792
272.0916356
275.3026499
273.0206529
273.0056768
273.004907
273.0062503
273.0082156
273.0052073
273.0019139
273.0020793
273.0044047
273.0062271
273.0058216
273.0090402
273.0103971
273.0091351
273.0063745
273.0073008
273.0111978
273.007132
272.1363588
275.268028
273.0174368
273.0042471
273.0022385
273.0017058
273.005194
273.0051881
273.0013687
273.0008592
273.004686
273.00723
273.0053653
273.006346
273.0080734
273.0087351
273.0067005
273.0066453
273.0088025
273.0051027
272.3665776
274.4233703
273.0094102
273.0028202
273.0012119
272.9999187
273.0028602
273.0041282
273.0011717
273.0004493
273.0042923
273.0077554
273.0052783
273.0030883
273.0047611
273.0087861
273.0093886
273.0075867
273.0050584
273.0001264
272.4308266
274.4330314
273.0061934
273.0020867
273.0029316
273.0006999
273.0029872
273.0019862
273.0017785
273.0000786
273.0036078
273.0076734
273.0056134
273.0008396
273.0020316
273.0081779
273.0112991
273.0083581
273.0015788
272.9949009
272.6744411
273.4963266
273.0834444
273.0038263
273.1251218
273.0066456
273.1350801
273.009061
273.1098675
273.0064334
273.0690957
273.0070556
273.0375101
272.9983806
273.0143797
272.9971579
273.0147933
272.997275
273.003469
272.9921177
272.7511434
267.6541301
281.1531669
269.1818988
282.3550242
270.8913966
282.4713569
271.9511758
281.5165339
272.1924898
279.7861915
271.6894077
277.7195837
270.8439528
275.8605382
270.2131581
274.7301698
270.112402
274.4802865
270.5540022
274.9672526
279.2159846
273.0965395
273.0099785
273.0093512
273.0110189
273.0125033
273.0192783
273.020919
273.0222965
273.0236916
273.0273704
273.0296731
273.0283616
273.0254003
273.024874
273.0262334
273.0255062
273.0207751
272.9910832
271.2990136
279.2217428
273.0910667
273.0028342
273.0025774
273.005579
273.0076004
273.0147614
273.0166638
273.0180838
273.0190068
273.0215298
273.0229828
273.0223808
273.0206233
273.0198139
273.0195777
273.0180087
273.0138992
272.985973
271.2940689
279.1615364
273.0904628
273.001826
273.0022579
273.0072066
273.0095788
273.0153491
273.0173946
273.0199623
273.0205236
273.0208758
273.0207858
273.0211787
273.0211894
273.0203078
273.0183868
273.0160325
273.0126812
272.9867755
271.2633027
279.1701451
273.0898049
273.0019065
273.0030015
273.0098156
273.0124719
273.0154866
273.0172483
273.021201
273.0215672
273.0197319
273.0175928
273.0185345
273.0202237
273.019867
273.0170817
273.0146706
273.0121055
272.9878085
271.2557435
279.0064449
273.0854767
273.0026347
273.0040109
273.0115149
273.0144836
273.0156068
273.0168918
273.0213155
273.0215327
273.0185092
273.0146467
273.0152481
273.0175372
273.0178481
273.0155685
273.0141162
273.0122769
272.9887949
271.1922603
278.9811803
273.0816691
273.0036856
273.0051693
273.0120063
273.0152723
273.0162493
273.0166673
273.019898
273.0200292
273.0173917
273.0128994
273.0122086
273.0137274
273.0146835
273.0138797
273.0139277
273.0127828
272.9900908
271.1942374
278.6907719
273.0744151
273.0048388
273.0066935
273.0124231
273.0156157
273.0175066
273.0164986
273.0170617
273.0170395
273.01608
273.0121799
273.0099063
273.0099423
273.0113141
273.0120554
273.0136096
273.0129805
272.9912886
271.1310141
278.6330367
273.0716802
273.0061072
273.0084609
273.0130359
273.0154893
273.0181852
273.0159626
273.0138537
273.0134868
273.0138594
273.0110775
273.0083152
273.0072831
273.0087147
273.0104596
273.0129187
273.0125701
272.9921923
271.174699
278.2104071
273.0662356
273.0072027
273.0097506
273.0134637
273.0145881
273.0168833
273.0145408
273.012113
273.0106917
273.0107654
273.0088153
273.0070084
273.0058684
273.0072209
273.0094233
273.0121444
273.0116062
272.9922532
271.142587
278.1240214
273.0651356
273.0076406
273.0098553
273.013221
273.012955
273.013434
273.0124657
273.0119614
273.0091408
273.0071524
273.0057949
273.005884
273.0053617
273.0064719
273.0087689
273.0113641
273.0106104
272.991968
271.254297
277.5563917
273.0563352
273.0070865
273.0089639
273.0127851
273.0116983
273.0094991
273.0096173
273.0119173
273.007964
273.0041199
273.0031798
273.0051534
273.0052829
273.006
273.0083759
273.0108658
273.0101124
272.9925503
271.2734315
277.4501461
273.0503228
273.0061334
273.0078889
273.0120524
273.0110333
273.0067278
273.0066462
273.0097254
273.0063297
273.0026178
273.0017458
273.0045217
273.005334
273.0056453
273.0075074
273.0100364
273.0099956
272.9941356
271.4605352
276.7213781
273.0372758
273.0056272
273.0070256
273.0105375
273.0103336
273.0055024
273.0037088
273.0052438
273.0044329
273.0030312
273.0014658
273.0037524
273.0050232
273.0056316
273.0065277
273.0086397
273.0096676
272.9969187
271.521736
276.6141125
273.0314411
273.0056208
273.0063673
273.0073652
273.0083158
273.0053989
273.0018002
273.0002594
273.0026965
273.004339
273.0017566
273.0023366
273.0041474
273.0058446
273.0058465
273.0066538
273.0084666
272.9986532
271.7636632
275.7522977
273.0215742
273.0056841
273.0055145
273.0031068
273.0051641
273.0055249
273.0011875
272.9974582
273.0013115
273.0051023
273.0021601
273.0007271
273.0025026
273.0058002
273.0055743
273.0051386
273.0063596
272.9992833
271.8552789
275.676001
273.0187493
273.0050158
273.0044791
272.9997879
273.0018348
273.0046227
273.001548
272.9971787
272.9999432
273.0041896
273.0026549
272.9999289
273.0008676
273.0046681
273.005336
273.0044019
273.0041904
272.9981897
272.1344269
274.6963999
273.0106515
273.0032383
273.003226
272.9993163
272.9998061
273.0026264
273.0021838
272.9985283
272.9981589
273.0016636
273.0031698
273.0012189
272.9999238
273.0027103
273.0048573
273.0044686
273.0027647
272.9978048
272.2526006
274.6779231
273.0079045
273.0008048
273.0027571
273.0008727
273.0011093
273.0004214
273.0032026
272.999599
272.9970041
272.9989155
273.0035269
273.0036004
273.0000977
273.0006019
273.0037658
273.0045077
273.0019634
272.9973808
272.5526581
273.5904108
273.0944409
273.003305
273.1395587
273.0108106
273.1533269
273.0131844
273.1253612
273.0090931
273.069949
272.9997004
273.0370737
273.0020166
273.0138246
272.9889976
273.0052314
272.992218
273.0045412
272.9971232
272.6781088
267.5488637
281.7017327
269.3790289
283.1720382
271.4239111
283.3805924
272.6366054
282.314061
272.7261044
280.3126451
271.8740499
277.9805306
270.7139636
275.9095534
269.8065937
274.6851608
269.6147597
274.5222839
270.1448829
275.1660406
280.3059647
273.1219315
273.0127585
273.0089313
273.0124732
273.0179319
273.0226231
273.0245277
273.0225144
273.0168615
273.0183223
273.0252481
273.0274124
273.0207733
273.0140349
273.0137089
273.0189432
273.0195907
272.9840139
270.2982573
280.3080749
273.1121899
273.005283
273.0034935
273.00677
273.0101128
273.0152489
273.01809
273.0180865
273.0153728
273.0158445
273.0189899
273.019894
273.015224
273.0102882
273.0093121
273.012303
273.011477
272.9767368
270.2839867
280.2425195
273.1059062
273.0044142
273.0055748
273.0091937
273.0110108
273.0146587
273.0169857
273.0191193
273.0195889
273.0188638
273.0170492
273.0162833
273.0146718
273.0123772
273.0102738
273.0106655
273.0091631
272.9760856
270.2128188
280.2572371
273.1027977
273.0046627
273.0083828
273.0131309
273.0149242
273.0158286
273.016141
273.0187973
273.0217158
273.0200558
273.0134594
273.0116156
273.0130439
273.013159
273.0098842
273.0087365
273.0075783
272.9778455
270.192221
280.0849377
273.0985994
273.0052184
273.0094831
273.0144718
273.0173856
273.0172883
273.0160316
273.0174934
273.0209382
273.0201192
273.0111883
273.0081717
273.0106176
273.0122858
273.0086715
273.0070906
273.0072921
272.9808988
270.0737314
280.0618533
273.0978891
273.0049581
273.0083814
273.0130832
273.0176889
273.0187969
273.0166283
273.0155996
273.0174961
273.0184718
273.0119081
273.0075422
273.008138
273.0100792
273.0074771
273.0063404
273.0074223
272.9842069
270.0750198
279.746326
273.091453
273.0038063
273.0068075
273.0115564
273.0167716
273.0205186
273.0177433
273.0136768
273.012987
273.0159628
273.0130931
273.0081162
273.0061805
273.008086
273.006982
273.0062618
273.0070473
272.9852441
269.9663335
279.6841793
273.0888884
273.0034015
273.0069182
273.0119378
273.0159965
273.0207453
273.0177083
273.01203
273.0092785
273.0112393
273.011416
273.0074726
273.004858
273.0068046
273.0070326
273.0063065
273.0057029
272.9843636
270.025523
279.2039046
273.0816205
273.0053673
273.0089021
273.0141088
273.0159104
273.017429
273.0153392
273.0123164
273.008615
273.0079865
273.0067807
273.0055785
273.0041227
273.0057777
273.0063946
273.005654
273.0041721
272.9832523
269.9889482
279.1026483
273.0814772
273.0088416
273.0110705
273.0162068
273.0160778
273.0111547
273.0109099
273.013958
273.0109453
273.005302
273.0020104
273.00315
273.0039527
273.0044247
273.0043249
273.0044359
273.0037493
272.9838711
270.1560709
278.4324101
273.0701953
273.0102568
273.0110405
273.016403
273.0160017
273.0058339
273.0061446
273.0142885
273.0124084
273.0043737
272.998518
273.0009512
273.0035164
273.0026843
273.0013359
273.00336
273.0048864
272.9870299
270.2233031
278.3137929
273.0631323
273.0093445
273.0090661
273.0136602
273.0144902
273.0046924
273.0034529
273.0099199
273.0105587
273.0041875
272.997252
272.9986468
273.0019115
273.0010268
272.9994215
273.0030389
273.0067783
272.9904979
270.4953251
277.4257099
273.0453626
273.0079594
273.0074854
273.0088015
273.0113691
273.0081153
273.0033825
273.0019535
273.005278
273.0047348
272.9981634
272.9968268
272.9991348
273.0004285
273.0000689
273.0035321
273.0070694
272.9929731
270.6414175
277.314989
273.0384115
273.0075007
273.0077761
273.0039662
273.0066327
273.0103924
273.0045969
272.9951307
272.9996606
273.0049337
272.9998566
272.9957847
272.9963796
273.000719
273.0024435
273.0040854
273.0054431
272.9919766
270.9894846
276.2595373
273.0256838
273.007256
273.0096334
273.0013781
273.0018479
273.0083207
273.0056409
272.9940604
272.9960455
273.0029656
273.0010256
272.9959684
272.9949839
273.0009283
273.0041534
273.004011
273.0028522
272.990886
271.1912027
276.197554
273.0247945
273.0062977
273.0095212
273.0015166
272.9984153
273.0030037
273.0053715
272.9978604
272.9945657
272.998245
273.0007154
272.997833
272.9957983
272.999394
273.0027721
273.0028702
273.001514
272.9913864
271.5854335
274.9950222
273.0157823
273.0037539
273.0066359
273.0038555
272.9986833
272.9979702
273.0042957
273.0028792
272.9941673
272.9922592
272.9992757
273.0024211
272.9987787
272.9968603
272.9988353
273.0013169
273.0022225
272.9966316
271.8316494
275.0109677
273.0138764
272.9997719
273.0033658
273.0055582
273.0028148
272.995712
273.0037511
273.0044572
272.9945837
272.9879503
272.9980735
273.0069389
273.0017661
272.9947583
272.9949098
273.0000876
273.0040113
273.0020134
272.2526153
273.677036
273.1271694
273.003998
273.1754469
273.0129303
273.1923123
273.0118351
273.1434014
273.0116813
273.0709517
272.9910838
273.0255658
273.0038375
273.0076093
272.9831973
272.9856876
272.9870981
272.9997083
273.0019526
272.5027868
266.8145864
283.0430304
268.9997486
284.7686744
271.453388
284.8798849
272.9166007
283.2956336
273.002727
280.5933891
271.9524745
277.5648034
270.5911968
274.9721319
269.5518629
273.4597761
269.4690394
273.4247201
270.3639122
274.3813113
283.3767622
273.200291
273.0155441
273.0086516
273.0144157
273.0257739
273.0251867
273.0243792
273.0237196
273.020049
273.012882
273.0104852
273.01713
273.0197253
273.0114221
273.0010427
273.0055077
273.0128349
272.9739899
268.5976227
283.3998845
273.1846374
273.0074666
273.0031714
273.0101263
273.0163513
273.0147822
273.0173522
273.0193148
273.0158947
273.0111696
273.008947
273.0109867
273.0101624
273.0044777
272.9986148
273.0025261
273.0062958
272.96581
268.5417733
283.3343931
273.172391
273.0066535
273.0064034
273.0128735
273.015362
273.0138629
273.0168899
273.018595
273.0164472
273.0152863
273.0120993
273.008746
273.004465
273.0027955
273.0020645
273.0049111
273.0051055
272.9649986
268.4095516
283.4035015
273.1669113
273.0080695
273.0117781
273.0154694
273.0170034
273.0181409
273.0176751
273.0154188
273.0149347
273.0176033
273.0136427
273.0054686
272.9988751
273.000658
273.0036608
273.0049503
273.0034098
272.9661234
268.2903192
283.2281096
273.1616832
273.0102178
273.0153055
273.0156145
273.0167031
273.0221415
273.0196772
273.0121219
273.0115728
273.0176962
273.0141591
273.0036015
272.995025
272.9989795
273.0034988
273.0033656
273.0017472
272.9695636
268.0899879
283.2614588
273.1642963
273.0098873
273.0149195
273.0137631
273.0147887
273.0245828
273.022743
273.0110242
273.0079048
273.0148627
273.0149467
273.0046636
272.9941809
272.9981687
273.0029097
273.0015463
273.0002553
272.9732125
267.9854062
282.8815977
273.1578464
273.0069553
273.0116175
273.0120399
273.0134991
273.0254327
273.0258889
273.0125151
273.0039698
272.9932626
273.0162679
273.0069706
272.9951518
272.9981024
273.002725
273.0005077
272.9986792
272.9756156
267.8330405
282.8264279
273.1546589
273.0039611
273.0087886
273.0125298
273.0140909
273.0235947
273.025392
273.0145169
273.000089
272.8898656
273.0129762
273.0061859
272.9956403
272.9980751
273.0029345
273.0000321
272.9969669
272.9756225
267.844698
282.1901768
273.1393874
273.0045415
273.0095152
273.0159219
273.0171549
273.0186802
273.0199498
273.0157143
273.0044837
272.9955334
273.0041983
273.0022482
272.9953228
272.9979529
273.0020048
272.9988966
272.9957928
272.9759675
267.8455388
282.0080191
273.1339656
273.0097635
273.012069
273.018837
273.0205413
273.0122899
273.0116183
273.0145965
273.0112095
273.0029637
272.9984428
272.9978643
272.9952872
272.9976561
272.9994101
272.9970926
272.9958294
272.9776679
268.0583196
281.0695666
273.1124202
273.0138853
273.0131924
273.0177026
273.0213718
273.0089812
273.0048085
273.0094431
273.0130156
273.0065666
272.9960518
272.9940387
272.9949519
272.996737
272.9961612
272.9956685
272.9971407
272.981749
268.2556196
280.8291216
273.1015575
273.0140097
273.0116104
273.0116828
273.0175688
273.0113145
273.0036688
273.001911
273.0092086
273.0087586
272.9963918
272.9910246
272.9928803
272.9953789
272.9946455
272.9962778
272.9994041
272.9844222
268.6705036
279.5659007
273.0760911
273.0116025
273.0109463
273.0036724
273.0101079
273.0176498
273.0083197
272.994913
273.000647
273.0078007
272.9999704
272.9900797
272.9887233
272.9938289
272.9959467
272.9988828
273.0007856
272.985307
269.0065118
279.307315
273.0681073
273.0088814
273.0122156
273.0010344
273.0017249
273.0172479
273.0131317
272.991872
272.9923081
273.0045008
273.0033449
272.990833
272.9849593
272.9927799
272.9994061
273.0019536
273.000604
272.982699
269.5545787
277.8216741
273.0483105
273.0059503
273.0148292
273.0058716
272.9961273
273.0074665
273.0130659
272.9956931
272.9893583
272.9974855
273.0027938
272.9938183
272.985883
272.9928716
273.0013002
273.0030182
272.9997948
272.9828983
269.980113
277.6273221
273.0465965
273.0030652
273.0121554
273.0121073
272.9966956
272.9942516
273.0072581
273.0047865
272.9929587
272.9891581
272.996995
272.998151
272.9927465
272.9937613
272.998653
273.0012471
273.0000642
272.9858798
270.5902419
275.9271983
273.0299283
272.9999098
273.0048279
273.0141883
273.0025996
272.9872289
273.0001622
273.0130717
273.0000601
272.9822893
272.9881999
273.002313
273.0035241
272.9950734
272.9922893
272.9970706
273.0017205
272.9951825
271.0762036
275.8637574
273.0244441
272.996119
272.9997039
273.0104347
273.0120179
272.9893853
272.9977225
273.0152768
273.006788
272.9791063
272.9813265
273.0047224
273.0114931
272.9961308
272.9868568
272.9929447
273.0036171
273.0036911
271.7076787
273.9946527
273.1781862
273.0057521
273.2490691
273.0251976
273.2909485
273.0321988
273.1998942
273.0305133
273.1135342
272.9872904
273.0159125
272.9979515
273.0134515
272.9837677
272.9722496
272.9797983
272.9966273
273.0045415
272.1909663
266.4485391
284.9274651
269.6496753
287.5470073
273.3214591
287.967414
275.4166617
285.8826032
274.976421
282.2473449
272.6679538
278.1552671
270.0794337
274.8067271
268.1021419
272.9523192
267.5974489
273.2836172
268.8475388
274.9634544
286.1974664
273.2772787
273.0157159
273.0180148
273.0136116
273.0256651
273.0276467
273.025417
273.0266864
273.0279917
273.0106556
272.9979176
273.0064416
273.016457
273.0122384
272.994454
272.9904957
272.9992299
272.9529367
265.9110797
286.2451855
273.259987
273.0099084
273.009563
273.013792
273.0226929
273.0170831
273.0169361
273.0162307
273.0159411
273.0062967
272.9954448
272.9973761
273.0015007
273.0004571
272.9925147
272.992753
272.9970175
272.9465259
265.8247748
286.2061538
273.2461158
273.0103071
273.0083823
273.0171947
273.0235142
273.0143905
273.0153485
273.0119869
273.009303
273.0100235
273.0012031
272.9933566
272.9890142
272.9918968
272.9962079
273.0003211
273.000511
272.9482099
265.5614282
286.3575372
273.2432711
273.0112434
273.010334
273.0162383
273.0209498
273.0189538
273.022622
273.0126258
273.0030878
273.012804
273.0115703
272.9923862
272.9771153
272.9829615
272.9971506
273.0038879
273.0012255
272.9511895
265.3632127
286.2123529
273.237998
273.0129911
273.0146225
273.0157306
273.0171398
273.0236693
273.0290251
273.0163327
272.9986941
273.0093158
273.0192986
272.9972718
272.9738813
272.9778307
272.9952294
273.0024132
272.999226
272.9561843
264.9698548
286.3184717
273.246628
273.0135529
273.0180312
273.0160351
273.0141985
273.0276026
273.0325656
273.0197269
272.9975272
272.9574342
273.016084
273.0062629
272.9821493
272.979246
272.991772
272.9976518
272.9958106
272.961783
264.8184556
285.9234318
273.2396337
273.0114489
273.0172223
273.0161962
273.0130668
273.0263383
273.0336396
273.0235092
272.9736736
271.3348312
272.9994235
273.0106263
272.9897569
272.9822189
272.9898224
272.99395
272.9928598
272.9677025
264.5123353
285.8773828
273.2361062
273.0078266
273.013958
273.016897
273.0155085
273.0212036
273.0299464
273.0214805
272.8367692
267.4362547
272.9022518
273.0004925
272.9893723
272.9830353
272.9889386
272.9922907
272.9913752
272.9718578
264.5610258
285.107173
273.2050475
273.0064067
273.0123101
273.0192727
273.0217686
273.0178253
273.0227849
273.0207465
272.9971428
272.3236359
272.9890139
272.9928619
272.9845615
272.9831941
272.988902
272.9917853
272.990936
272.9758466
264.5401266
284.8511319
273.1900213
273.0111598
273.0137348
273.0197397
273.0269582
273.0198853
273.0158377
273.0120917
273.0033981
272.9837303
272.9925367
272.9888713
272.9830258
272.984188
272.9894794
272.9915317
272.9909053
272.9780076
264.8964964
283.6470778
273.1544206
273.0180095
273.016741
273.0152677
273.0248134
273.0244119
273.0139038
273.0022963
273.0020959
273.0021519
272.9970408
272.98979
272.9826681
272.984128
272.9896681
272.9916295
272.9910816
272.9800826
265.2207898
283.3158344
273.147293
273.0210646
273.0185041
273.0064462
273.0144563
273.0267795
273.0175948
272.9966513
272.9976527
273.0051869
273.0050622
272.9916921
272.9799687
272.9820858
272.9899383
272.9928668
272.9919657
272.9797543
265.8707397
281.6501604
273.1163102
273.0165222
273.0189445
272.9985651
273.0015381
273.0258372
273.0229568
272.9956637
272.9888453
273.0008701
273.0078343
272.9923584
272.9772689
272.9807937
272.9912147
272.9955367
272.9929948
272.9791303
266.4786561
281.3313142
273.1136963
273.0081475
273.0166877
273.002569
272.9944355
273.0158447
273.0225163
272.9992266
272.9845058
272.9901234
273.0005412
272.9916416
272.9792291
272.9830131
272.9942918
272.9985583
272.9940406
272.976965
267.3329931
279.3148962
273.0779544
272.9992141
273.0134117
273.0184804
272.9981527
272.998326
273.0139206
273.0075784
272.9894787
272.9824278
272.9900325
272.9918654
272.9849997
272.9879787
272.9970908
272.9998705
272.9951767
272.9790531
268.1273476
279.0772935
273.0700116
272.9945078
273.0057607
273.0284867
273.0070368
272.9848578
272.9992969
273.0142654
273.0028831
272.9830187
272.9818648
272.9915843
272.9936392
272.994126
272.9970688
272.9984831
272.9966061
272.982719
269.0517654
276.7656002
273.037049
272.9957503
272.9975284
273.0213753
273.015313
272.986656
272.988112
273.0142543
273.0156694
272.989051
272.9777311
272.9906795
273.0026578
272.9998288
272.9940438
272.9943866
272.9979693
272.9914614
269.9218187
276.7459355
273.0307287
272.999864
273.0025484
273.0050287
273.0199446
272.9984326
272.9917847
273.0076527
273.0193454
272.9961927
272.9782509
272.9894466
273.0075193
273.0024956
272.9895904
272.9897973
272.9991049
272.9986101
270.844624
274.2428179
273.2710866
273.0142284
273.4012066
273.0163877
273.4229502
273.0571496
273.2719645
273.0231282
273.1337321
273.0048374
273.0076096
272.9793414
272.984842
272.9798554
272.9530831
272.9723654
272.9783441
272.9972846
271.7092007
265.0355971
288.0132599
269.0912827
291.485562
273.8140265
291.7170757
276.6448512
288.3049247
276.0692831
282.9678252
273.2225697
277.2109449
269.8202127
272.5005521
267.28901
269.9197878
266.9595208
270.5419006
269.1612883
273.081389
292.205554
273.4897066
273.0103054
273.0383109
273.0161092
272.9918735
273.0307675
273.0528183
273.0114023
272.9897829
273.0170068
273.0269561
272.9921031
272.9680434
272.9922903
273.0101451
272.9979647
272.9895166
272.9363505
261.4536309
292.3683269
273.4806582
273.0184298
273.0267088
273.0203853
273.0192849
273.0235794
273.025318
273.0111902
273.0015264
273.0017802
273.0022717
272.989443
272.9724556
272.9805285
272.9939452
272.9918991
272.9886811
272.9338699
261.2329511
292.4235706
273.4804871
273.025746
273.0161889
273.0227813
273.0408888
273.020435
273.0100077
273.0158351
273.0132281
272.9893208
272.9833088
272.9927226
272.9824222
272.9742953
272.9830368
272.9912178
272.9944847
272.9454718
260.7330599
292.8139752
273.4978211
273.0220356
273.0031795
273.0160964
273.0378306
273.0182377
273.0084028
273.020555
273.0189376
272.9803268
272.9701543
272.9917584
272.991122
272.974555
272.9758581
272.9903814
272.9973887
272.9587757
260.1713928
292.8056008
273.4975849
273.0146909
272.9982377
273.014027
273.0317579
273.0123981
273.0096982
273.0280178
273.0248433
272.9091215
272.9695843
272.989988
272.9972632
272.97657
272.9704505
272.9874723
272.9971146
272.973821
259.4273714
293.1247028
273.5126488
273.012896
273.0059678
273.0224302
273.033374
273.0077961
273.0086472
273.0369234
272.9790766
270.9346029
272.956629
272.9856859
273.0030498
272.9798537
272.9652393
272.9818296
272.9943837
272.9883733
258.8763249
292.7208865
273.4981394
273.0149263
273.0164553
273.0286906
273.0358599
273.0029408
273.002269
273.0168059
271.4044848
244.3399874
272.2135683
272.9717718
273.0088946
272.9824346
272.9619537
272.9767058
272.9916206
273.0027211
258.3563412
292.7371235
273.4845767
273.0164318
273.019916
273.0313125
273.0411742
273.0024374
272.9929372
272.922236
268.290082
232.0951344
269.4037285
272.8963938
273.0058246
272.9819182
272.9603607
272.9741918
272.9905452
273.0140026
258.2146514
291.7021636
273.4210706
273.0129544
273.0172197
273.0304851
273.0459297
273.0104482
272.996711
273.0185217
272.2380656
257.2243511
272.4466657
272.9611086
272.9940127
272.9802351
272.9616258
272.9751033
272.9905703
273.0210781
258.2667644
291.2820119
273.3903772
273.0110411
273.0157633
273.0243741
273.0430694
273.0233917
273.0095516
273.0121608
272.998934
271.8546206
272.9731417
272.9668029
272.9842823
272.9798375
272.9670467
272.9786019
272.9906493
273.0221053
258.7649882
289.5189134
273.3250576
273.0154906
273.0189329
273.0149157
273.0306921
273.0339191
273.0197746
272.9998473
272.9999453
272.9687959
272.9859741
272.9732423
272.9793118
272.9793172
272.9744224
272.9826876
272.9899644
273.0173481
259.4629243
288.9258033
273.3177934
273.0223875
273.0245149
273.0061185
273.012278
273.0345704
273.0286299
273.0015853
272.993899
272.9898832
272.9865984
272.983502
272.9791428
272.9771268
272.9792783
272.9857693
272.9887667
273.0071521
260.5794971
286.4110142
273.2606104
273.0185679
273.0249416
273.0026584
272.997653
273.0238641
273.0345584
273.0150535
272.9898554
272.9718069
272.9838865
272.9984459
272.9875203
272.9745807
272.9803537
272.9877878
272.9876727
272.9977067
261.795782
285.724369
273.2459114
273.009489
273.0158586
273.0092262
272.9977063
273.0067402
273.0287232
273.0313791
272.9905032
272.9562091
272.9844686
273.0145347
272.9948885
272.970039
272.9799189
272.9896175
272.9876974
272.989387
263.3197812
282.6746049
273.1543427
272.9995088
273.0013694
273.0252007
273.0123207
272.9887022
273.011064
273.0377185
272.9957829
272.9557736
272.9845902
273.0139855
272.9944976
272.9723951
272.9840054
272.992378
272.9888268
272.9875029
264.8030698
282.0843694
273.1130241
272.9931181
272.9900654
273.031725
273.0242323
272.9839229
272.9898702
273.0182123
273.0003716
272.9778396
272.9874186
272.9950998
272.9855344
272.9826979
272.9930118
272.9952225
272.9901317
272.9864823
266.378838
278.6294018
273.0370687
272.9967683
272.9943408
273.0174601
273.0217173
273.0026977
272.9806703
272.9849872
273.0085595
273.0148141
272.9909903
272.9671429
272.9779432
273.0005024
273.0046668
272.9961942
272.98995
272.988776
267.9152761
278.500988
273.03382
273.0115183
273.0336173
272.9942382
273.016777
273.0294561
272.9994436
272.9581891
273.0148489
273.0504365
272.9972069
272.9469278
272.9755285
273.0161032
273.012571
272.9941682
272.9884518
272.9894318
269.3837138
274.8479916
273.4117254
273.0353108
273.7360679
273.0600874
273.7138736
273.1968704
273.4861704
273.0528883
273.2151135
273.0762148
273.0373176
272.9221138
272.9341288
272.9863569
272.9619798
272.9933397
272.9644183
273.000485
270.902306
264.2982824
291.9614244
270.3002043
297.5182829
277.7151725
298.1901594
282.3593783
293.3772243
280.3854866
285.6482515
274.9743873
277.7227365
268.7791799
271.2206778
264.0831997
267.9613434
262.7135361
269.5738882
265.8101418
273.926156
298.1673443
273.7566402
272.9992119
273.0341131
273.0541453
272.9774437
272.9949338
273.0459372
273.0247252
273.0020198
273.0075697
273.0036762
272.9687504
272.9522482
272.983153
273.0121525
273.0057963
272.9891997
272.9409081
256.0082874
298.6011587
273.7746272
273.0319264
273.0409146
273.0297994
273.0148984
273.0165123
273.03344
273.013322
272.9924912
272.9955386
272.9937821
272.9667637
272.9507014
272.9616505
272.9833034
272.9882475
272.9843203
272.9456381
255.6328775
298.8210584
273.7969123
273.0513024
273.0333447
273.0118014
273.0471743
273.0487948
273.0314957
273.006131
272.9840315
272.9855417
272.9918152