/*--------------------------------*- C++ -*----------------------------------*\
| =========                 |                                                 |
| \\      /  F ield         | OpenFOAM: The Open Source CFD Toolbox           |
|  \\    /   O peration     | Version:  5.x                                   |
|   \\  /    A nd           | Web:      www.OpenFOAM.org                      |
|    \\/     M anipulation  |                                                 |
\*---------------------------------------------------------------------------*/
FoamFile
{
    version     2.0;
    format      ascii;
    class       volScalarField;
    location    "9.6";
    object      p;
}
// * * * * * * * * * * * * * * * * * * * * * * * * * * * * * * * * * * * * * //

dimensions      [1 -1 -2 0 0 0 0];

internalField   nonuniform List<scalar> 
30538
(
101300.3598
101298.8561
101276.8145
101266.2338
101270.8772
101276.7526
101280.472
101287.9284
101294.2332
101298.3293
101300.7886
101310.455
101326.0182
101336.2298
101334.6428
101329.7051
101327.0139
101324.2436
101316.9873
101305.5545
101297.4509
101292.7323
101279.2967
101271.8946
101272.0732
101276.1107
101278.7259
101285.08
101291.7566
101299.0887
101304.7058
101312.7345
101323.6321
101332.5613
101334.7868
101332.9036
101329.097
101324.4083
101316.3191
101305.3294
101293.3187
101284.0064
101280.7712
101278.4139
101273.7942
101275.0557
101277.0158
101282.035
101288.9947
101300.2386
101309.8466
101315.7372
101320.6469
101327.9586
101334.8251
101336.8226
101332.043
101324.7594
101315.3017
101304.9205
101290.0227
101277.5979
101280.7621
101281.7489
101273.9281
101273.5963
101276.3648
101281.1401
101287.6216
101300.6516
101313.2291
101318.104
101318.4236
101324.5058
101335.2567
101340.8397
101335.3846
101325.3455
101314.0396
101304.0049
101289.8914
101277.5567
101279.1482
101280.2826
101272.4563
101271.7083
101276.5917
101282.6928
101288.042
101299.7621
101312.4285
101318.487
101318.6824
101323.883
101335.8699
101343.598
101338.5456
101326.4497
101313.442
101303.1804
101292.6252
101282.9601
101276.7428
101274.7952
101269.7098
101269.8181
101277.0775
101285.2832
101289.9473
101298.1116
101308.3338
101316.8093
101320.9677
101325.9288
101336.1898
101344.4949
101340.564
101328.1223
101313.3901
101302.7602
101295.5756
101287.7764
101274.2498
101268.2247
101267.1556
101268.962
101276.3962
101286.2077
101292.635
101297.8925
101304.9476
101315.3475
101323.5521
101328.7371
101335.6261
101342.9126
101340.7191
101329.3798
101314.2533
101302.6636
101296.713
101289.1426
101272.7305
101265.0703
101266.9736
101270.0586
101274.7596
101284.1911
101293.0782
101298.8669
101305.2542
101315.7162
101325.7961
101330.8371
101333.8679
101339.3471
101338.7744
101330.1709
101315.9302
101303.4851
101295.9971
101287.4433
101273.9008
101266.8663
101269.9884
101272.8853
101273.3106
101280.4337
101290.681
101299.9739
101307.7136
101316.9601
101326.4751
101331.5176
101332.0585
101334.9159
101335.6508
101330.7691
101318.8389
101305.4296
101295.1128
101285.8791
101277.2141
101272.289
101273.1673
101274.9573
101273.3059
101277.5192
101287.9138
101300.0419
101309.225
101317.0092
101324.9568
101330.8117
101331.3575
101331.9238
101333.0098
101331.1611
101321.8115
101308.0265
101295.1601
101285.9691
101280.4479
101276.8156
101273.9641
101274.2763
101274.3443
101278.1196
101287.6123
101300.0729
101309.0431
101314.6902
101321.3542
101329.1285
101332.0649
101331.5612
101331.2205
101330.7835
101323.7872
101310.1435
101296.0581
101286.869
101282.2589
101278.336
101272.174
101271.1956
101275.0955
101281.3043
101290.1054
101300.2755
101307.5437
101311.0813
101316.604
101326.4458
101333.3493
101333.2504
101330.2863
101328.4567
101322.5119
101309.9943
101296.3634
101287.3501
101282.3735
101278.3219
101271.7843
101269.7186
101276.1155
101284.8395
101293.0716
101300.5051
101305.7348
101308.5703
101312.9261
101323.0536
101333.0261
101334.3978
101328.9939
101323.7457
101317.185
101307.5167
101295.6466
101286.9002
101282.478
101279.1882
101275.0243
101273.1127
101278.042
101286.0735
101292.9455
101299.1182
101304.6367
101308.5064
101311.8489
101319.8865
101329.7203
101332.5348
101326.4367
101318.3974
101310.4662
101304.1907
101294.4496
101286.8783
101283.466
101282.2165
101281.7381
101280.8038
101281.7908
101285.3248
101290.0227
101296.3721
101303.882
101310.3571
101313.4796
101317.5445
101323.7485
101326.9375
101322.3885
101314.1395
101306.204
101301.3843
101294.7301
101288.4201
101285.5114
101285.9427
101288.6425
101289.055
101286.7446
101285.6049
101287.4524
101293.5667
101302.2468
101310.7964
101315.2332
101316.1798
101317.3115
101319.4115
101317.3589
101312.4508
101306.1386
101301.4029
101296.7093
101291.5736
101287.8666
101288.3184
101292.7306
101294.3832
101291.8068
101288.1715
101288.2913
101292.3833
101299.5771
101308.1046
101314.3128
101314.6515
101312.4103
101312.1223
101312.3502
101312.5921
101309.3172
101303.5551
101299.3456
101295.6534
101290.76
101290.1482
101293.4483
101296.4366
101295.9202
101292.8689
101292.6754
101294.3718
101296.7452
101302.9864
101310.2182
101311.5304
101309.0474
101306.5475
101307.595
101311.9572
101312.8004
101305.5403
101300.8673
101298.2468
101294.2957
101291.493
101293.9173
101297.1163
101298.0805
101297.058
101297.9132
101296.9112
101295.7083
101297.6656
101303.3569
101307.6341
101306.1574
101303.2073
101304.3398
101309.0528
101310.5411
101305.1959
101300.3159
101299.6605
101298.9447
101297.0984
101296.2998
101300.1361
101298.9658
101299.2384
101301.2714
101299.0452
101297.7275
101299.2004
101299.5408
101303.6816
101303.2748
101299.8822
101301.6018
101303.8832
101304.7008
101302.2315
101298.1056
101293.7707
101279.34
101272.7701
101271.7519
101273.8697
101278.8954
101287.58
101293.8513
101299.5902
101302.3331
101308.321
101319.3261
101331.2893
101335.5317
101331.8919
101325.8676
101321.3597
101315.4018
101306.2521
101296.2092
101290.1309
101281.5962
101276.642
101273.2917
101274.8916
101279.013
101285.8011
101290.5442
101297.5572
101303.7076
101310.6394
101318.9606
101328.212
101333.5237
101333.0406
101327.9904
101322.4771
101315.1823
101305.6333
101293.3306
101284.256
101281.6619
101279.3775
101274.7194
101276.3381
101279.5834
101283.8757
101286.8621
101295.5134
101305.9242
101313.9965
101318.768
101324.469
101331.1346
101334.9107
101331.4563
101324.3468
101314.6955
101304.6016
101291.1235
101280.3099
101279.7782
101279.1064
101274.9096
101276.7483
101279.6206
101283.0926
101285.6494
101295.1311
101307.2999
101316.2455
101319.1382
101322.4417
101329.8522
101337.0504
101335.0662
101326.346
101314.1208
101303.4142
101291.7761
101281.7577
101277.3944
101276.4328
101274.2545
101275.6985
101278.1575
101283.2677
101287.7188
101296.3162
101306.5598
101315.6374
101320.1402
101323.1972
101329.8957
101338.3677
101337.3976
101327.714
101313.9025
101302.5292
101294.9632
101287.5109
101276.6452
101273.0368
101272.8751
101273.5411
101275.4082
101283.5905
101291.7731
101297.9706
101303.6801
101312.786
101321.0769
101325.9769
101330.8795
101338.1847
101337.4412
101328.2078
101314.3153
101302.6195
101298.0549
101291.9939
101277.116
101270.566
101270.8918
101271.3079
101272.9183
101283.2073
101295.02
101299.8379
101301.7832
101310.6058
101321.8488
101328.8728
101332.0865
101336.2927
101335.1765
101327.9887
101315.6928
101304.1125
101298.5628
101292.2024
101277.753
101270.1875
101269.6631
101270.3658
101272.2201
101282.4465
101294.5149
101300.5766
101303.3857
101311.1954
101322.4414
101330.5443
101332.6537
101333.5139
101332.0368
101327.7711
101318.1542
101306.6559
101296.4712
101288.0338
101277.8336
101271.4153
101270.0323
101271.654
101274.0884
101281.7181
101290.3792
101299.2958
101306.2532
101313.5032
101322.2239
101330.0985
101332.4964
101331.4561
101329.7552
101327.8755
101320.8537
101309.0885
101294.143
101283.9215
101277.7876
101274.091
101271.9462
101273.8494
101277.4619
101281.6342
101286.4232
101296.9721
101307.7703
101314.8206
101320.3334
101327.5914
101331.7338
101331.2995
101329.2327
101327.748
101321.777
101310.0409
101293.6936
101282.6725
101278.6365
101276.92
101273.9977
101274.9677
101279.1321
101282.5216
101286.2384
101296.4405
101307.7507
101314.1773
101317.357
101324.2123
101330.9926
101332.6989
101329.912
101326.4821
101319.7316
101308.7176
101294.9707
101284.7935
101280.7554
101279.2298
101274.8713
101273.7944
101277.9955
101283.3481
101289.3634
101297.8019
101306.5749
101312.1629
101315.065
101321.3173
101329.6467
101333.6737
101330.2097
101323.8521
101315.2179
101305.8022
101296.1518
101287.9348
101283.1606
101280.1533
101275.853
101273.1984
101276.4192
101283.9915
101292.7881
101299.6095
101304.9201
101310.3477
101314.4795
101319.8109
101327.1583
101332.0587
101328.8964
101320.8231
101310.8068
101302.9977
101296.5624
101289.9185
101284.6312
101280.5207
101277.8448
101275.8274
101277.8814
101284.9455
101293.394
101298.9497
101303.038
101309.2459
101315.3865
101319.542
101323.4215
101327.606
101325.9291
101318.7093
101308.9237
101301.9167
101295.9874
101290.4629
101285.0087
101281.4384
101281.6341
101281.8843
101282.8134
101286.3328
101291.7712
101296.4218
101300.9889
101308.7431
101316.4125
101319.4621
101319.6605
101322.0042
101321.8717
101317.3347
101309.3976
101302.5951
101296.3243
101291.1437
101285.9613
101284.3122
101286.1445
101288.2822
101288.665
101288.8378
101290.6701
101294.4643
101299.3773
101306.8142
101314.8651
101317.622
101316.8393
101317.3355
101317.1883
101315.4607
101310.3158
101303.6033
101297.7398
101292.7463
101288.7906
101288.1548
101289.7196
101291.8458
101292.4036
101291.0134
101291.9135
101294.8346
101298.9891
101303.8714
101309.5352
101313.6261
101314.9203
101314.1127
101312.6455
101312.1473
101309.6555
101303.9036
101299.5039
101296.0168
101293.3964
101293.1917
101291.8393
101292.9525
101293.6619
101293.499
101295.2375
101298.4147
101300.0918
101301.0612
101302.6312
101307.9759
101312.642
101311.4522
101308.2583
101307.9522
101307.2704
101303.1361
101300.0637
101298.2329
101297.9701
101296.4194
101293.9861
101293.3112
101294.1695
101295.7085
101298.8494
101301.0137
101301.033
101298.7149
101297.804
101302.853
101308.4951
101308.3092
101304.8006
101303.8808
101303.8204
101301.9362
101299.2359
101299.7766
101301.4277
101298.4281
101297.3959
101298.8998
101296.5808
101298.7774
101300.737
101300.8008
101301.062
101298.5815
101297.4563
101301.1224
101303.2619
101302.7646
101302.4269
101300.8349
101300.3593
101300.8131
101291.5622
101281.7854
101285.2635
101286.5298
101276.1394
101272.5214
101277.6112
101286.3408
101292.481
101301.209
101305.7451
101305.961
101309.6872
101323.1165
101334.1331
101335.4314
101327.2824
101318.8365
101311.6163
101305.0426
101293.7144
101285.1085
101285.0055
101284.3766
101277.2104
101274.6611
101279.6949
101287.4595
101290.5964
101295.662
101302.0277
101308.0725
101313.6233
101321.9542
101329.4001
101332.5249
101327.4288
101320.6567
101312.8192
101304.8578
101296.2983
101288.8542
101282.9474
101279.114
101277.0598
101277.8522
101282.9793
101288.424
101287.8605
101289.7925
101298.7124
101311.0931
101318.6651
101321.2404
101324.606
101329.8601
101328.8301
101323.6989
101314.5302
101304.9941
101298.1012
101291.5658
101279.5628
101272.8351
101276.4944
101280.7227
101284.2402
101287.6477
101287.1218
101288.6176
101297.2119
101312.5218
101322.0377
101322.0724
101322.3911
101328.6385
101331.0712
101327.0784
101316.7593
101305.452
101298.9143
101293.2951
101276.9595
101269.2481
101276.9365
101282.2265
101281.2133
101284.0298
101289.5544
101293.6268
101297.9619
101310.5561
101321.53
101324.3696
101323.3802
101328.6169
101331.6646
101328.4861
101317.7229
101305.5004
101298.6172
101293.2082
101277.5836
101270.8075
101278.7231
101281.8703
101274.7268
101278.8167
101293.4846
101301.2454
101300.5025
101306.1411
101317.3453
101325.6969
101326.409
101329.0798
101330.3378
101327.3898
101317.1914
101305.4911
101297.7664
101291.7093
101281.7302
101276.3157
101278.9833
101279.0069
101270.3766
101275.9106
101295.1689
101305.5662
101303.1654
101303.0865
101313.3332
101326.4136
101330.0077
101329.3195
101327.5343
101325.1765
101316.7427
101306.3172
101296.6251
101290.2461
101285.7074
101281.0379
101276.4165
101274.5324
101271.4294
101277.9629
101293.6276
101304.083
101304.5876
101304.044
101313.0151
101327.0522
101332.4479
101329.3189
101325.0873
101323.6622
101317.6263
101307.6315
101295.2201
101287.0724
101284.9181
101281.0305
101272.4415
101270.8052
101277.2428
101283.4894
101289.0007
101298.5647
101304.7798
101308.0043
101314.1718
101325.7012
101332.043
101329.5879
101325.0143
101323.5695
101318.6664
101308.8917
101294.4194
101284.7923
101280.2542
101277.8111
101270.7361
101271.3274
101283.7068
101288.8571
101285.7396
101292.3623
101304.0591
101311.2136
101315.091
101321.9991
101328.6304
101329.8912
101326.7758
101323.8698
101317.8801
101308.4874
101294.7424
101283.8827
101277.4764
101276.2347
101274.2916
101275.5868
101285.636
101289.6227
101286.2716
101290.9981
101303.7426
101313.3695
101315.4946
101317.9266
101324.6751
101330.2682
101328.6947
101323.1136
101314.4644
101305.6894
101295.7166
101285.9376
101279.6967
101278.2215
101279.6447
101280.3126
101282.1544
101285.8142
101289.4
101294.4679
101303.8952
101313.6465
101316.1634
101315.8513
101321.3917
101329.3713
101328.6085
101320.8568
101309.6712
101302.2728
101296.4995
101289.9028
101285.2468
101280.8793
101282.944
101282.8479
101277.5432
101281.7356
101292.4294
101299.1197
101304.1972
101312.2144
101316.8634
101316.5686
101318.9202
101325.7328
101326.372
101318.8496
101307.4403
101300.7035
101297.4283
101293.5027
101288.4199
101281.7222
101283.1121
101283.8139
101278.8473
101282.4684
101294.2372
101300.5234
101302.1538
101308.6715
101317.091
101319.0107
101317.1957
101320.8928
101322.3779
101318.3135
101308.9693
101301.865
101297.8884
101294.5616
101287.9455
101281.5578
101282.1155
101284.7009
101285.2249
101288.01
101295.3669
101298.5548
101298.0174
101303.922
101315.2171
101319.6657
101316.5693
101316.8408
101318.7557
101318.2522
101312.6801
101304.7348
101298.6616
101294.2295
101287.1027
101283.8698
101283.2039
101286.3195
101291.8473
101295.2034
101296.9367
101296.8683
101295.4096
101299.8106
101309.9473
101316.4906
101316.5359
101315.8473
101315.678
101315.611
101312.9041
101305.6006
101299.1193
101293.319
101289.7918
101289.305
101286.469
101287.3951
101294.0761
101298.1499
101297.835
101297.0427
101297.199
101298.4289
101302.5661
101309.9117
101315.8527
101316.7524
101313.0842
101310.0216
101307.4529
101303.3387
101298.7472
101294.4528
101295.8841
101297.4566
101290.7325
101289.1881
101292.9329
101297.0667
101297.8354
101299.9922
101303.6456
101301.0204
101296.0814
101302.8894
101313.8095
101316.4904
101310.4548
101303.508
101300.0596
101299.9334
101297.725
101296.0282
101301.4585
101301.9416
101294.934
101290.0138
101292.2911
101295.9147
101297.2589
101302.6336
101308.2238
101303.6853
101294.5949
101298.1088
101308.9689
101313.1807
101306.8374
101299.3341
101296.1899
101297.8098
101297.1396
101299.0101
101303.2257
101300.824
101299.1488
101297.4394
101295.6008
101298.5181
101298.3902
101301.6217
101305.6067
101300.3313
101297.4186
101298.1885
101302.4184
101305.8449
101303.44
101298.3616
101296.4623
101298.6289
101284.1068
101269.7238
101292.9097
101299.508
101284.9338
101281.365
101279.2589
101281.3478
101288.9924
101302.74
101309.4652
101305.8549
101304.3014
101313.3008
101322.0661
101330.3436
101329.6602
101322.1431
101309.8372
101301.842
101291.8565
101282.0269
101286.7958
101289.0753
101284.9009
101280.8675
101280.2051
101286.4644
101291.7484
101295.4882
101300.4766
101306.7419
101312.0946
101316.6984
101320.9964
101328.079
101328.0061
101320.9641
101309.7554
101301.9407
101302.1068
101300.0651
101282.6251
101277.3614
101282.1486
101280.1259
101283.1749
101292.5454
101293.0798
101288.2925
101291.5275
101307.171
101319.5414
101321.177
101320.4498
101324.4689
101325.4235
101321.0283
101312.2345
101303.8333
101309.9867
101312.4621
101282.3286
101269.6659
101278.3497
101281.0888
101286.2909
101294.9329
101293.5255
101286.2711
101287.8513
101306.1441
101320.5126
101323.8437
101320.91
101320.7466
101322.6
101322.5717
101317.1802
101307.8667
101309.453
101309.6361
101282.7809
101268.3083
101277.5085
101284.4623
101286.1529
101289.246
101293.2892
101293.3681
101292.7667
101303.2594
101315.6284
101324.686
101323.3145
101318.8819
101319.6817
101323.9832
101321.9224
101311.1642
101300.1543
101294.2836
101283.3638
101275.0002
101281.188
101289.0425
101281.0949
101276.8804
101289.8472
101304.78
101304.1341
101300.4102
101306.696
101323.3241
101326.6983
101319.9702
101318.0241
101324.1896
101323.438
101311.746
101290.0407
101280.3665
101287.4956
101287.1103
101285.1132
101289.6786
101278.3487
101269.852
101284.2912
101309.0496
101313.7455
101299.3985
101298.9763
101320.6442
101331.0392
101323.73
101319.0397
101322.5298
101320.7172
101309.8381
101287.7584
101278.3611
101292.7605
101295.1277
101284.214
101283.151
101279.7353
101273.2256
101282.0019
101305.937
101312.5768
101300.8618
101299.3758
101319.1111
101333.3587
101328.8302
101321.6623
101320.1169
101315.6035
101305.8302
101292.3818
101285.4303
101292.0516
101293.038
101277.8002
101274.0389
101283.718
101284.1876
101283.782
101297.1749
101306.8499
101304.9611
101304.3224
101318.4106
101331.5144
101331.7867
101324.8346
101318.5983
101310.5221
101302.6778
101298.2453
101292.4958
101285.1158
101283.6643
101272.5347
101271.039
101287.1795
101293.7119
101287.8792
101289.0045
101300.8614
101308.0187
101310.3899
101316.1723
101324.7107
101330.5298
101327.0692
101318.6847
101307.4956
101300.9551
101301.175
101293.397
101279.5799
101276.3144
101275.764
101278.1773
101287.8309
101294.7038
101291.5121
101287.8389
101297.7314
101311.622
101315.9492
101313.4102
101316.3353
101325.9154
101327.8694
101319.9918
101307.1324
101300.3502
101298.7726
101291.3542
101281.5235
101275.9885
101284.5034
101289.6448
101285.3865
101288.022
101292.3612
101293.1943
101299.3418
101314.5726
101319.6815
101313.1345
101310.6955
101319.7085
101325.6903
101320.9793
101308.5
101301.204
101295.6826
101291.5795
101288.9774
101279.9755
101289.9925
101296.5721
101281.4026
101278.9295
101291.0326
101300.5667
101303.7523
101312.7957
101319.2916
101315.8782
101310.4298
101314.4405
101320.6324
101320.7786
101311.6383
101303.4415
101296.3518
101295.0288
101293.056
101283.5565
101289.2833
101295.5105
101283.3485
101278.3468
101291.4721
101305.4244
101305.1203
101304.2826
101314.1367
101319.6166
101314.321
101312.0191
101314.4523
101318.6955
101314.9455
101306.0945
101299.5839
101297.7266
101291.354
101284.5161
101284.8915
101290.3435
101290.3672
101287.802
101295.8227
101305.2146
101300.7854
101293.9094
101305.4
101319.5594
101318.5679
101313.0227
101311.148
101314.9297
101315.3984
101307.6342
101302.0109
101297.4496
101288.0535
101287.0781
101283.0975
101286.6855
101295.8573
101300.5125
101302.9684
101302.8137
101295.9251
101290.4091
101298.327
101314.0252
101319.4395
101316.1522
101310.9022
101309.7049
101310.6025
101305.7038
101301.0287
101293.5852
101290.0783
101292.4021
101286.1567
101284.203
101296.2947
101307.0923
101305.2132
101298.7014
101295.6316
101296.2333
101297.0879
101304.9923
101314.6687
101318.878
101312.9791
101304.4489
101301.7087
101301.4661
101296.68
101291.4041
101296.8165
101300.2799
101292.2153
101286.8156
101293.7548
101305.1025
101300.9144
101294.0772
101302.2716
101308.4232
101300.6205
101297.7738
101307.3357
101318.2535
101314.7812
101301.4556
101294.1681
101297.2788
101293.9161
101292.358
101302.3452
101305.1521
101297.4985
101286.7325
101292.9024
101300.14
101294.2168
101293.3547
101308.1251
101316.877
101304.4983
101294.9815
101301.2125
101312.5569
101311.9007
101301.3814
101294.8006
101296.3634
101294.8603
101298.2534
101302.4709
101302.5774
101301.0838
101296.4013
101295.8393
101300.5705
101296.5438
101299.0133
101304.8133
101306.4735
101304.591
101296.0041
101297.3869
101305.5569
101305.6358
101300.3879
101297.6254
101298.1877
101287.5898
101271.6911
101300.6787
101302.4714
101292.1423
101297.3973
101288.4076
101278.3006
101281.9528
101292.7349
101312.134
101314.8518
101303.1265
101295.1713
101303.1666
101320.1699
101332.0669
101328.1157
101311.7985
101300.9476
101293.7623
101285.9733
101286.7495
101286.8896
101292.6213
101294.6647
101286.3009
101281.6899
101290.8907
101298.8824
101304.2466
101308.7577
101311.403
101312.7555
101314.0089
101319.8737
101325.4621
101322.4814
101309.5042
101300.8749
101305.8547
101308.9608
101282.4228
101276.87
101290.0487
101286.9575
101283.7021
101290.3227
101300.1755
101300.7656
101291.7161
101299.5321
101317.4891
101327.7936
101322.8123
101318.6619
101318.3582
101317.4952
101310.4044
101303.0328
101316.4736
101325.6089
101290.9089
101279.3356
101284.0762
101277.5572
101286.011
101301.728
101302.5079
101295.5045
101283.5547
101291.0228
101314.7344
101331.4577
101326.0772
101317.0083
101312.2247
101315.1942
101315.2404
101308.2244
101312.6278
101315.4703
101297.6299
101286.2738
101279.0437
101275.6747
101290.9095
101303.5199
101296.4124
101290.4141
101289.4404
101292.5513
101308.3995
101324.1185
101324.585
101317.2614
101310.7361
101315.9827
101320.9809
101313.135
101296.0728
101285.6269
101295.6856
101293.2055
101278.8322
101282.9307
101297.1001
101295.2411
101283.5667
101287.5097
101305.3431
101307.49
101304.7779
101312.5622
101321.1449
101319.5358
101313.6923
101318.2248
101323.421
101314.2706
101281.2279
101263.9064
101292.6016
101299.6007
101284.7709
101290.0297
101301.093
101287.3559
101272.1337
101285.163
101321.4561
101317.0036
101299.9725
101303.1674
101320.2819
101325.2331
101319.3191
101319.0377
101319.4409
101310.3031
101281.6981
101266.9597
101293.1555
101301.7233
101289.478
101289.1708
101299.7097
101283.6956
101267.0803
101283.4012
101317.6572
101316.2059
101296.7924
101302.0887
101323.8843
101332.8077
101325.7407
101317.9294
101311.0467
101302.7064
101294.9455
101291.8832
101294.7267
101297.1447
101286.3997
101280.7778
101293.4795
101288.8932
101278.8018
101286.3345
101305.147
101309.5785
101302.3982
101306.791
101324.1335
101335.106
101327.9548
101315.7261
101303.8064
101296.637
101307.4887
101311.4465
101293.2972
101288.3074
101280.197
101275.6555
101287.5958
101296.255
101296.437
101292.7739
101292.9225
101305.7538
101311.9707
101312.674
101320.4003
101329.3449
101325.1225
101314.2953
101301.7798
101295.0408
101310.326
101309.3919
101290.1601
101281.8777
101279.0031
101280.5597
101286.4624
101296.5818
101303.5062
101295.9468
101290.7393
101305.6324
101317.5031
101315.5552
101314.9643
101320.7149
101320.6029
101315.3384
101304.8992
101298.0499
101301.3431
101294.884
101289.5099
101281.3679
101285.5454
101292.7235
101290.8076
101291.4287
101296.6307
101296.3258
101297.9684
101309.1521
101316.5654
101314.3221
101310.9026
101313.4515
101316.8052
101318.3953
101311.236
101303.481
101290.9615
101284.6485
101293.4208
101286.101
101292.2954
101301.2834
101296.8195
101285.9937
101283.8619
101295.6348
101308.7013
101310.6367
101309.9852
101312.1217
101311.2224
101309.8537
101313.0264
101319.397
101316.2833
101307.3256
101291.1477
101286.7299
101295.5147
101292.7509
101294.1547
101301.0677
101300.2235
101286.3255
101279.2767
101298.1574
101314.3289
101305.0821
101300.6784
101310.7511
101314.9268
101310.6788
101309.3694
101316.142
101316.3063
101307.7474
101300.1463
101296.0614
101294.7744
101295.2371
101291.0326
101295.0869
101300.5531
101292.8288
101288.9049
101303.0368
101309.7663
101295.4392
101294.0567
101310.1132
101318.1257
101313.1933
101307.4902
101310.3095
101311.1346
101305.2468
101306.0824
101302.4789
101293.1709
101294.8791
101289.7593
101292.6215
101297.7408
101300.3585
101304.9568
101306.8314
101300.9087
101292.3888
101294.5056
101308.6002
101315.8926
101314.0343
101307.8086
101305.1083
101304.3347
101302.0379
101304.1706
101299.2721
101294.335
101292.921
101292.5649
101291.8936
101292.8748
101303.2027
101312.0936
101304.1583
101295.7052
101298.2433
101302.4226
101306.1268
101307.8805
101311.3258
101309.5945
101303.3909
101298.9735
101300.0327
101296.6014
101293.0145
101295.7821
101294.4965
101299.0674
101295.8285
101291.3532
101303.3859
101306.6173
101295.1273
101293.6246
101307.8311
101313.8328
101303.814
101298.2207
101307.2738
101312.3967
101305.2935
101297.758
101299.3773
101293.3791
101291.3512
101296.152
101296.1231
101303.3466
101294.5523
101294.4789
101298.1669
101295.4692
101288.8308
101296.8684
101314.0553
101316.9703
101301.966
101293.537
101302.4303
101310.5601
101307.6715
101301.9601
101300.7414
101295.8037
101298.7637
101296.2174
101301.3303
101304.1965
101297.6912
101297.1765
101300.9034
101295.902
101297.0141
101299.9181
101307.7006
101310.2058
101299.4665
101294.4247
101299.1941
101304.8831
101305.9454
101302.8525
101300.2915
101299.3749
101293.9204
101311.5562
101310.8849
101282.0193
101296.2363
101316.0447
101284.0213
101255.9867
101286.154
101327.1409
101315.1482
101284.8719
101299.688
101326.7667
101315.8103
101313.4016
101317.1872
101316.0681
101305.4895
101295.6981
101292.1617
101289.8024
101286.0879
101294.9335
101306.7744
101301.2093
101282.1111
101283.824
101308.6018
101316.1561
101302.8804
101296.7418
101311.5318
101317.5235
101314.5745
101315.8251
101321.5587
101316.5283
101304.3717
101299.7986
101302.8397
101283.5619
101276.2183
101302.6351
101303.576
101282.619
101290.2584
101314.8224
101313.8589
101294.6593
101295.695
101314.5561
101318.2737
101306.2959
101313.7929
101318.3486
101322.1184
101315.6625
101304.0124
101310.7433
101318.2705
101298.0566
101290.8776
101298.7891
101282.0621
101271.9397
101307.6177
101327.6958
101291.4344
101265.895
101296.3126
101330.5826
101319.3441
101302.22
101315.904
101319.3889
101317.0921
101310.8822
101303.8494
101309.3306
101310.968
101311.6981
101307.7551
101289.6981
101266.102
101279.7347
101323.7678
101321.0603
101272.3222
101254.3405
101301.3473
101334.5393
101313.8305
101303.2864
101320.3814
101319.7337
101311.7522
101306.749
101305.4432
101296.6734
101284.4134
101308.1636
101312.9599
101283.8455
101268.2062
101300.2538
101331.5919
101306.7237
101265.1471
101267.9621
101312.9356
101332.5157
101303.6955
101300.6607
101323.4165
101320.5492
101309.8225
101308.1295
101306.5702
101285.05
101263.5463
101295.4454
101305.3501
101288.2417
101281.6933
101312.1645
101329.6527
101291.4677
101257.4573
101312.869
101328.8543
101324.5069
101292.9989
101294.0204
101325.9466
101324.3642
101312.0895
101310.7314
101305.2463
101286.4009
101271.6763
101283.7278
101292.0884
101296.4655
101293.6917
101309.1492
101321.4541
101284.9305
101256.4806
101279.278
101341.5491
101316.3582
101287.1794
101292.5875
101330.0963
101330.657
101315.5764
101309.7579
101301.612
101301.678
101305.4596
101286.7115
101285.2684
101299.8796
101293.3351
101293.6304
101310.5545
101303.3797
101281.5075
101271.3221
101318.2558
101321.6713
101290.4269
101294.9973
101332.1127
101332.7394
101315.7306
101305.7981
101297.0112
101316.317
101330.1142
101300.2582
101286.8668
101295.608
101286.5526
101277.6653
101302.6309
101323.5549
101305.6975
101279.8143
101303.7248
101327.9388
101300.6948
101300.245
101328.6692
101327.976
101312.8709
101302.9286
101295.4338
101314.8081
101324.6845
101308.5019
101292.1557
101289.095
101281.8469
101276.4232
101302.5825
101324.9783
101305.8045
101282.5266
101298.8257
101326.6565
101312.9088
101306.5304
101321.2513
101318.8663
101310.5637
101305.2229
101298.9149
101300.9754
101296.3437
101303.0425
101297.9605
101287.3083
101285.0752
101295.5708
101312.1228
101308.7788
101288.9014
101288.0677
101302.8763
101317.8909
101317.7631
101312.7818
101315.0624
101310.6236
101310.2839
101311.1018
101304.9404
101287.3157
101273.8141
101294.8559
101302.9818
101289.8013
101287.4632
101319.2093
101326.2613
101289.2983
101272.4457
101297.2006
101312.2779
101307.2761
101312.4449
101316.7063
101313.1799
101306.1016
101309.4694
101314.4108
101308.0839
101287.0286
101272.9859
101291.2397
101308.8584
101294.4686
101286.0883
101323.6877
101329.0933
101279.9024
101271.1362
101310.8338
101320.7004
101295.9774
101300.0517
101317.8295
101316.0877
101305.6204
101307.2066
101311.9289
101305.8827
101301.4035
101291.2837
101295.9104
101311.5106
101296.1629
101285.4388
101310.6074
101311.9874
101281.3706
101286.2006
101318.3685
101317.0965
101290.8306
101293.7783
101315.038
101317.3047
101307.3737
101304.5937
101305.0741
101300.4825
101308.9928
101308.3509
101304.3496
101306.0778
101298.8003
101296.0157
101294.2889
101288.2087
101291.6352
101306.4516
101316.0724
101308.3639
101295.1399
101298.6375
101310.8029
101313.451
101309.8305
101304.5592
101299.0764
101297.1361
101304.6933
101310.2124
101305.6406
101292.1184
101303.1535
101311.2451
101285.82
101277.4404
101301.8346
101315.2705
101305.6183
101300.1428
101306.7771
101310.5426
101304.0174
101302.9143
101308.8007
101308.6902
101300.0038
101298.3286
101297.8348
101299.8543
101294.4039
101283.0538
101308.1871
101323.8833
101291.0467
101284.3613
101309.0315
101312.1156
101288.149
101291.08
101321.4576
101321.8917
101296.8312
101290.123
101305.5844
101313.1132
101305.5636
101301.7311
101298.6364
101293.5545
101283.5193
101274.704
101308.3635
101321.4667
101301.1683
101289.6845
101304.494
101302.0773
101280.0713
101286.9659
101321.9877
101323.1075
101294.3117
101285.0775
101300.1075
101313.4589
101309.9255
101304.6724
101302.4561
101300.7379
101285.2949
101296.2674
101305.0943
101302.9052
101301.703
101300.141
101300.5673
101297.7195
101292.6755
101299.4107
101309.3205
101311.0312
101299.1084
101290.0222
101295.8611
101307.1128
101307.7422
101302.7068
101310.8622
101319.6632
101315.759
101323.7067
101266.2608
101261.1954
101326.7617
101331.1072
101295.7747
101278.6774
101278.8962
101304.0337
101318.323
101322.2138
101326.8949
101321.9783
101299.5341
101298.7239
101317.0382
101308.1184
101297.3618
101298.7195
101302.141
101296.7065
101294.7807
101299.3743
101315.4774
101300.3498
101278.7171
101291.4545
101302.6193
101298.9099
101297.7835
101306.7281
101314.4313
101318.8204
101313.1247
101311.5181
101316.4883
101308.1625
101291.0204
101285.6784
101293.5589
101279.3985
101315.2811
101319.9935
101293.205
101279.4505
101269.4329