/*--------------------------------*- C++ -*----------------------------------*\
| =========                 |                                                 |
| \\      /  F ield         | OpenFOAM: The Open Source CFD Toolbox           |
|  \\    /   O peration     | Version:  5.x                                   |
|   \\  /    A nd           | Web:      www.OpenFOAM.org                      |
|    \\/     M anipulation  |                                                 |
\*---------------------------------------------------------------------------*/
FoamFile
{
    version     2.0;
    format      ascii;
    class       volScalarField;
    location    "9.6";
    object      rho;
}
// * * * * * * * * * * * * * * * * * * * * * * * * * * * * * * * * * * * * * //

dimensions      [1 -3 0 0 0 0 0];

internalField   nonuniform List<scalar> 
30538
(
1.260987799
1.289204537
1.289526904
1.289438684
1.289479828
1.289528884
1.289557529
1.289620475
1.289674146
1.289708237
1.289729377
1.289814727
1.289953368
1.290041902
1.290024229
1.289977368
1.289952263
1.289928282
1.28998858
1.297243527
1.260902389
1.289183721
1.28958119
1.289521569
1.289522142
1.289554482
1.289573265
1.28962658
1.289684091
1.289748096
1.289798479
1.289869103
1.28996581
1.290043072
1.290060122
1.290040865
1.290005362
1.289963695
1.290014969
1.297185097
1.261332214
1.289118907
1.28959331
1.289578592
1.289535537
1.289542702
1.289556166
1.289598063
1.289658757
1.28975969
1.289846952
1.289898722
1.289941573
1.290004845
1.290064241
1.290080025
1.290035086
1.28996924
1.290003777
1.297397979
1.261108389
1.289066597
1.289591046
1.289605849
1.289533397
1.289526661
1.289548241
1.289588881
1.289646367
1.289765096
1.289880281
1.289923614
1.28992483
1.289977706
1.290072646
1.290120787
1.290068796
1.289977159
1.28998792
1.29715723
1.262193059
1.289095492
1.289574116
1.289589047
1.289516622
1.289506407
1.289548236
1.289601872
1.289651166
1.289759015
1.289876072
1.28993083
1.28993125
1.289976073
1.290082417
1.290149863
1.290100918
1.28998964
1.289979296
1.297656563
1.262036675
1.289155039
1.28954987
1.289535812
1.289487968
1.289486045
1.289550368
1.28962533
1.289669501
1.28974604
1.289842015
1.289918969
1.28995549
1.289998534
1.290088537
1.29016106
1.290121838
1.290006727
1.289972865
1.297212162
1.263881531
1.289241385
1.289525171
1.289472699
1.289461207
1.289475375
1.289542513
1.2896337
1.289695156
1.289746055
1.289814012
1.289908328
1.289981563
1.290026423
1.290085717
1.290148394
1.290124741
1.290019106
1.289975493
1.297869245
1.263713632
1.2892662
1.289509162
1.289440987
1.289456581
1.289483043
1.289526512
1.28961562
1.289700366
1.289756711
1.289818716
1.289913249
1.290003184
1.290046322
1.290070391
1.290116171
1.29010723
1.290026335
1.289984077
1.297163397
1.26627272
1.289303495
1.289518394
1.289454986
1.289481885
1.28950723
1.289512843
1.28958201
1.289679806
1.289767958
1.289841848
1.289924775
1.290009138
1.290051656
1.290052903
1.29007482
1.290077819
1.290030793
1.290004531
1.297844038
1.266039778
1.289303789
1.289547342
1.289502876
1.289509662
1.289525447
1.289512834
1.289556126
1.289655367
1.289768955
1.289855113
1.289923935
1.289993323
1.290042597
1.290043737
1.290045072
1.290051584
1.290032431
1.29002408
1.296741419
1.26935773
1.28936562
1.289576799
1.289543685
1.289516832
1.289519516
1.289522848
1.289562036
1.28965265
1.289768549
1.289851656
1.289900065
1.289956811
1.29002295
1.290045811
1.290037858
1.290031988
1.290026229
1.290033602
1.297309285
1.269001708
1.289389017
1.289593865
1.289558263
1.289501321
1.289492422
1.289530384
1.289591036
1.289674567
1.289768722
1.289835046
1.289863206
1.289908688
1.289993184
1.290052296
1.29004871
1.290019931
1.290002422
1.290013793
1.295816829
1.273192045
1.28945926
1.289596697
1.28955968
1.289499097
1.289480163
1.289540293
1.289622794
1.289700306
1.289768292
1.289814797
1.289835467
1.289869829
1.28995675
1.290044092
1.290054733
1.290004902
1.289957367
1.289955776
1.296336587
1.272624448
1.289470416
1.289599369
1.289569358
1.289529984
1.28951205
1.289558151
1.289633392
1.289697562
1.289752865
1.289800681
1.289830038
1.289854806
1.289922884
1.290009475
1.290034159
1.289979121
1.289907326
1.289885985
1.294494827
1.277614748
1.289533127
1.289610071
1.289598458
1.289592381
1.28958284
1.289592459
1.289625938
1.289669252
1.289725217
1.289790111
1.289842783
1.289865477
1.28989794
1.289952256
1.289981291
1.289941119
1.289868319
1.289836815
1.294938124
1.276723146
1.289559336
1.289629553
1.289633266
1.289655936
1.289658338
1.289637426
1.289627627
1.289644131
1.289697446
1.289772393
1.289844155
1.289879153
1.289884028
1.289892913
1.289912822
1.289895726
1.289853825
1.289828277
1.29287571
1.282506475
1.289638495
1.289651135
1.289654894
1.289693266
1.289706836
1.289683072
1.28965003
1.289650213
1.289685048
1.289746557
1.28981897
1.289870699
1.289870828
1.289849602
1.289848217
1.28985194
1.289856805
1.289848075
1.293243105
1.281160625
1.289676005
1.289676423
1.289659264
1.289699197
1.289711981
1.28971961
1.28968209
1.289688862
1.289697664
1.289720742
1.289771897
1.289835572
1.289844981
1.289822136
1.289801004
1.289811702
1.289853776
1.289874079
1.291075269
1.287661547
1.289034374
1.289686725
1.288708607
1.289706362
1.288682628
1.289714848
1.288869512
1.289715616
1.289185739
1.289710779
1.289452687
1.289793019
1.289686426
1.289856063
1.289719765
1.289843983
1.28979093
1.289863576
1.291454197
1.325762323
1.239495955
1.317465224
1.233477565
1.307429906
1.233102502
1.301011613
1.238433305
1.299172664
1.247981518
1.301456927
1.259514619
1.305428067
1.270153852
1.30830217
1.27710126
1.308346817
1.278949533
1.305491995
1.276113578
1.256038317
1.289065702
1.289552605
1.289502187
1.289492599
1.289509987
1.289552561
1.289627731
1.289681332
1.289730462
1.289753704
1.289805612
1.289904386
1.290011551
1.290049779
1.290016437
1.289959551
1.289916909
1.290017779
1.299383486
1.255930168
1.289067534
1.289605088
1.289568758
1.289538023
1.28955037
1.289584894
1.289643179
1.289683295
1.289744387
1.289798958
1.289859824
1.289934585
1.290017497
1.290065449
1.290060549
1.290012371
1.289960986
1.290046751
1.299354107
1.256421924
1.289030945
1.289605051
1.289592198
1.289549383
1.289561653
1.28958839
1.289624559
1.289649494
1.289726323
1.289820275
1.289892141
1.289935235
1.289986395
1.290046679
1.290080124
1.290046059
1.289979867
1.290039265
1.299661243
1.256159551
1.289000994
1.289586601
1.289587714
1.289548769
1.289562873
1.289586489
1.289616043
1.289638051
1.289723579
1.289834359
1.289914977
1.289941486
1.289971368
1.290038355
1.290102477
1.290081277
1.290000128
1.290029248
1.299524834
1.257364167
1.289048416
1.289563631
1.289561053
1.289540096
1.289550559
1.28957091
1.289616315
1.28965662
1.289735287
1.289829566
1.289912204
1.289953642
1.289981572
1.290041862
1.290117038
1.290104694
1.29001434
1.290021694
1.300140443
1.257139479
1.289112255
1.289554996
1.289527569
1.289524607
1.289528134
1.289543792
1.289618125
1.289693451
1.289751436
1.289805488
1.289889102
1.289964938
1.290009472
1.290053004
1.290117171
1.290106713
1.290020007
1.290018648
1.299837857
1.259186291
1.289202609
1.28955791
1.289502374
1.289503683
1.289505245
1.289519399
1.289613865
1.289723357
1.289769637
1.28979011
1.28987159
1.289974116
1.290037479
1.290065235
1.290100762
1.290086813
1.290018496
1.290023137
1.300579378
1.258998505
1.289218802
1.289561935
1.289496294
1.289489938
1.289494564
1.289511732
1.289606644
1.28971938
1.289777581
1.289806205
1.28987831
1.289980566
1.290053137
1.290070384
1.290075192
1.290057951
1.290016262
1.290038137
1.299934997
1.261875186
1.289243773
1.28956174
1.289505238
1.289491306
1.289504751
1.28952797
1.289600203
1.289682702
1.289767003
1.289832941
1.289899667
1.289978525
1.290048424
1.290067834
1.290055223
1.290036018
1.290016185
1.29005352
1.300587777
1.261677477
1.289223637
1.289560234
1.289527989
1.289507432
1.289523962
1.289558458
1.289599944
1.289647531
1.289746517
1.28984671
1.289910862
1.289959921
1.290023697
1.290058646
1.29005144
1.29002909
1.29001318
1.290054935
1.299417019
1.265468676
1.289285435
1.28956791
1.289552951
1.289525584
1.289534151
1.289574255
1.289608778
1.289646397
1.289741624
1.289845537
1.289902983
1.289930116
1.289989721
1.290048492
1.290060758
1.29003211
1.289998964
1.290024971
1.299848257
1.265188597
1.289323351
1.289587107
1.289573921
1.289533632
1.289524126
1.289564865
1.289617143
1.289674936
1.289753193
1.289832933
1.289881596
1.289905496
1.289959281
1.290032231
1.29006586
1.290031508
1.289972247
1.289975231
1.298125276
1.270009318
1.289431055
1.289610014
1.289582873
1.289543109
1.289519677
1.289551603
1.289623633
1.289705874
1.289768181
1.289815279
1.289861495
1.28989595
1.289941233
1.290005584
1.290047679
1.290016566
1.289942132
1.289921093
1.298428161
1.269541475
1.289467641
1.289624261
1.289587087
1.289562042
1.289544533
1.289565689
1.289632571
1.289710737
1.289760438
1.289795299
1.289847813
1.289900053
1.289934779
1.289968077
1.290004334
1.289987281
1.289921086
1.28989418
1.296319261
1.275299121
1.289548562
1.289628914
1.289596343
1.289597416
1.289600425
1.289611005
1.289645099
1.289695055
1.289735704
1.289774045
1.289840151
1.289906069
1.289931141
1.289931602
1.289951921
1.289949394
1.289908007
1.289883939
1.29654686
1.274474528
1.289569837
1.289638301
1.289623212
1.289639156
1.289659212
1.289664332
1.289667355
1.289683832
1.289716177
1.289757281
1.28982055
1.289890204
1.289913189
1.289905342
1.289909595
1.289907285
1.289891741
1.289882934
1.294158155
1.281156926
1.28964602
1.289664576
1.289658474
1.289672224
1.289691841
1.289698144
1.289686244
1.289693809
1.289718047
1.289752404
1.289793071
1.289841509
1.289877144
1.289888511
1.289881398
1.289867466
1.289863314
1.289864274
1.294301666
1.279766343
1.289676871
1.289706176
1.28969037
1.289691227
1.289685973
1.28970841
1.289696176
1.289722415
1.289744062
1.289761899
1.289766028
1.289779849
1.289826907
1.289869624
1.289859292
1.289829952
1.289827687
1.289835757
1.291759217
1.287269137
1.288948122
1.289714846
1.288621219
1.289687459
1.288511495
1.289656046
1.288759743
1.289715384
1.28918018
1.289764015
1.289460132
1.289751749
1.289659254
1.289897853
1.289787904
1.289866391
1.289756668
1.289804254
1.291927255
1.326871864
1.236150771
1.316850229
1.228875538
1.304813599
1.228204314
1.297390842
1.23426047
1.296287712
1.245247058
1.300381659
1.258280036
1.30612242
1.270109957
1.310395243
1.277535501
1.310931494
1.27903674
1.307591452
1.275342811
1.249166249
1.288832128
1.289598666
1.289619579
1.289526611
1.289494231
1.28953951
1.289616022
1.289668301
1.289744067
1.289782973
1.289783339
1.289819131
1.289943948
1.290046832
1.290059126
1.289980107
1.289898375
1.290043295
1.304610857
1.249071822
1.288896894
1.289628757
1.289632022
1.289568168
1.289544951
1.289589803
1.289657889
1.289683191
1.289725922
1.289781844
1.289835459
1.289888175
1.289967002
1.290037409
1.290066021
1.290014828
1.289949048
1.290084408
1.304630341
1.249586053
1.288950402
1.289610196
1.289583681
1.289565689
1.289572213
1.289617773
1.289665135
1.289657512
1.289672555
1.289752396
1.289864269
1.289935639
1.289962503
1.289995858
1.290043398
1.290029082
1.289978233
1.290094982
1.305187762
1.249325044
1.288979531
1.289579041
1.289525755
1.289558914
1.289595989
1.289626736
1.289656074
1.289649653
1.2896619
1.289739827
1.289879105
1.289968329
1.289972298
1.289977706
1.290033814
1.290050978
1.290010584
1.290106418
1.305160512
1.250546114
1.289036598
1.289555222
1.289491999
1.289561119
1.289607149
1.289596617
1.289621096
1.289670451
1.289707341
1.28974771
1.289863431
1.2899661
1.289995271
1.289988255
1.290034707
1.290057723
1.290024706
1.290105408
1.306160209
1.250337198
1.289046985
1.289560072
1.289504748
1.289575307
1.289601417
1.289535119
1.289571724
1.289704945
1.28977655
1.28977198
1.289825498
1.289930277
1.29000895
1.290016533
1.290039296
1.29004643
1.2900156
1.290089269
1.305885315
1.252477693
1.289092847
1.289597241
1.289553053
1.289575608
1.289573102
1.289493452
1.28954365
1.289719642
1.289816051
1.28980367
1.289799573
1.289895515
1.290016483
1.290049394
1.290041113
1.290021042
1.289995855
1.290072427
1.306944567
1.252366669
1.289093719
1.289632186
1.289594025
1.289550293
1.289530492
1.289501342
1.289561164
1.289705385
1.289803422
1.289849237
1.28980958
1.289893672
1.290022541
1.290070956
1.290040073
1.289998076
1.289981995
1.290069471
1.306185836
1.255534218
1.289142578
1.289624645
1.28959214
1.289512418
1.289495132
1.289553149
1.289610987
1.289663892
1.289754037
1.289816113
1.289846246
1.289904502
1.290009899
1.290066376
1.29004103
1.289996123
1.289980352
1.290064936
1.306910599
1.255545108
1.289137323
1.289581255
1.289561403
1.289495568
1.289498984
1.289611459
1.289660028
1.28963491
1.289698476
1.289807786
1.289875205
1.289912106
1.289975098
1.290033704
1.290041695
1.290009952
1.289981484
1.290049814
1.305390791
1.259885602
1.289222278
1.289556013
1.289545967
1.28952703
1.289537603
1.289629668
1.28966818
1.289640862
1.289686627
1.289804817
1.289893749
1.289914184
1.28993613
1.289995467
1.290042364
1.290024388
1.289971946
1.290003213
1.305609672
1.259763468
1.289258946
1.289575466
1.289563249
1.289575298
1.289581186
1.289599561
1.28963544
1.289670451
1.289718437
1.289805565
1.289894654
1.289917982
1.289914682
1.2899629
1.29003121
1.290020297
1.289948184
1.289951134
1.303364345
1.265465341
1.289397001
1.289626068
1.289586951
1.289605468
1.289605538
1.289559814
1.289600333
1.289699015
1.289760636
1.289807179
1.289879608
1.289921775
1.289918421
1.289937705
1.289995391
1.289996869
1.289926649
1.289912408
1.303249287
1.265099947
1.289445303
1.289654591
1.289594398
1.289607544
1.289615761
1.289573589
1.289608615
1.289716238
1.289773079
1.28978728
1.289845311
1.289921238
1.289938002
1.289919685
1.289949289
1.289958239
1.289919291
1.289916438
1.300475626
1.272016269
1.289554432
1.289650851
1.289593087
1.289599229
1.289625143
1.2896329
1.289660029
1.289726947
1.289754755
1.289748372
1.289800371
1.289902133
1.289942135
1.289912623
1.289911679
1.289924421
1.289917706
1.289930208
1.300154916
1.271191108
1.289564091
1.289643491
1.289614643
1.289609995
1.289640928
1.289693795
1.289725654
1.289741101
1.289738735
1.289723536
1.289761687
1.289853041
1.289912451
1.289911994
1.289902978
1.289897014
1.289894275
1.289921626
1.29707385
1.279260476
1.289637505
1.289668873
1.28966462
1.289640578
1.289651141
1.289714184
1.289751897
1.289748423
1.289739281
1.28973869
1.289748257
1.28978534
1.289852297
1.289905766
1.289911838
1.289874847
1.289845113
1.289853433
1.296614009
1.277666914
1.289644215
1.289725024
1.289720415
1.289679575
1.289646532
1.289702743
1.289726791
1.289747032
1.289759139
1.289796287
1.289769603
1.289726098
1.289788183
1.289887171
1.289910677
1.289852626
1.289788531
1.289777021
1.293363269
1.286704555
1.288712374
1.289733377
1.288371381
1.289691717
1.288200235
1.2896334
1.288596047
1.289701028
1.289152161
1.289832337
1.289536256
1.289730923
1.289680238
1.289913804
1.289907585
1.28989359
1.289767717
1.289745105
1.292941208
1.330646426
1.229317658
1.318299304
1.220352213
1.303698436
1.219807286
1.29477785
1.228147301
1.293838581
1.242674519
1.299223948
1.259501104
1.30642022
1.274503465
1.311570681
1.283714531
1.311625392
1.284831946
1.30644387
1.279533168
1.233597358
1.288283677
1.289657682
1.289732189
1.289601632
1.28956934
1.289549089
1.289565166
1.289631112
1.289752612
1.289811963
1.289779404
1.289770625
1.289858865
1.289941749
1.290014879
1.290001428
1.289927444
1.290096136
1.314525167
1.233364133
1.288433215
1.289634846
1.289669388
1.289633288
1.289596315
1.289589415
1.289643669
1.289687951
1.289718515
1.289762537
1.289820168
1.289874499
1.289923161
1.289965439
1.290027524
1.290019909
1.289951502
1.290125881
1.314768426
1.2339788
1.288618825
1.289597542
1.289562842
1.289607298
1.289588159
1.289614946
1.289697523
1.28969898
1.289652737
1.289681677
1.289825274
1.289943508
1.289965166
1.289961786
1.289996067
1.289998196
1.289953667
1.290136797
1.315736715
1.233340311
1.288724889
1.289594577
1.289492577
1.289571394
1.289594875
1.289641
1.289717138
1.289701641
1.289633919
1.28964897
1.289817707
1.289954275
1.289990992
1.289967154
1.289963472
1.289974405
1.289969502
1.290169595
1.316281182
1.234771576
1.288761268
1.289599451
1.289479697
1.289562274
1.28962307
1.289637017
1.289663077
1.289698066
1.289697861
1.289694283
1.289793494
1.28991211
1.290000224
1.289989904
1.289947477
1.289949563
1.289983906
1.290192039
1.317860433
1.234096407
1.288629805
1.289604631
1.289539832
1.289594101
1.289662157
1.289588167
1.28954841
1.289665349
1.289801204
1.289812737
1.289769541
1.289833084
1.289989231
1.290021048
1.289957638
1.289935495
1.289987084
1.29018885
1.318185567
1.236758469
1.288588717
1.289642785
1.289648823
1.289628047
1.289665555
1.289560552
1.289482421
1.289613724
1.28984758
1.290844995
1.289765629
1.289764599
1.289965652
1.290060406
1.289991344
1.289944993
1.289972952
1.290137245
1.319567175
1.236355326
1.288587544
1.289689892
1.289720283
1.289618075
1.289604181
1.289571067
1.2895114
1.289592663
1.289868406
1.293894127
1.289803517
1.289769488
1.289952128
1.290080927
1.290036662
1.289968451
1.289951532
1.290076679
1.319008304
1.240558555
1.288778559
1.289684318
1.289699919
1.289558133
1.289519759
1.289605934
1.289610291
1.289608803
1.289736162
1.290199679
1.289816565
1.289815162
1.289945749
1.290063455
1.290062111
1.289996218
1.289937353
1.290007169
1.319546384
1.24067897
1.288862474
1.289620521
1.289613461
1.289509064
1.289491714
1.289636913
1.289696911
1.289646613
1.28966068
1.289778296
1.289843907
1.289870142
1.289924855
1.290000399
1.290048641
1.29001448
1.289936854
1.289973921
1.317672809
1.246608606
1.289027352
1.289571315
1.289545607
1.289537645
1.289556585
1.289643649
1.289707263
1.289680715
1.289651006
1.289745235
1.289876505
1.28991998
1.2898986
1.289922512
1.290004033
1.290018673
1.289946186
1.289948601
1.317192577
1.246666036
1.289040392
1.289588396
1.289541945
1.289617089
1.289661883
1.289623548
1.289648884
1.289690174
1.289700592
1.289760277
1.289902753
1.28995269
1.289894362
1.289868896
1.289944496
1.289995067
1.289951472
1.289957429
1.314000313
1.254577604
1.289217575
1.289657
1.289577647
1.289667894
1.289727258
1.289590449
1.289569103
1.289680017
1.289768344
1.289800366
1.289885786
1.289947799
1.28991729
1.289864198
1.289893732
1.289945452
1.289945635
1.289962502
1.312848845
1.254528624
1.289275964
1.28969328
1.289609711
1.289662747
1.289720169
1.289611096
1.289566586
1.289685799
1.289813299
1.289812663
1.289807648
1.289899495
1.289949447
1.289897702
1.289869752
1.289886673
1.289923719
1.289989411
1.308754447
1.264117809
1.289474548
1.289678805
1.289618648
1.289624298
1.289675695
1.289677247
1.289654526
1.289726885
1.28981218
1.289773173
1.289712648
1.289818836
1.289947793
1.289935364
1.289878446
1.289855607
1.28988823
1.289968118
1.307245644
1.263484979
1.289492242
1.289649059
1.289642496
1.28960933
1.289644426
1.289728695
1.28977101
1.289792658
1.289790727
1.28972864
1.289679651
1.28975327
1.28989654
1.289943049
1.289907312
1.289853809
1.289841073
1.289918722
1.302735639
1.274682063
1.289596767
1.289669041
1.289691484
1.289638284
1.289622623
1.289733506
1.289830772
1.289812896
1.289753101
1.289725128
1.289731213
1.28974051
1.289813356
1.289899412
1.289932561
1.289873984
1.289794698
1.289811436
1.301065611
1.272821072
1.289568684
1.289731691
1.289731659
1.289693248
1.289611185
1.289708978
1.289789496
1.289772901
1.289701772
1.289784556
1.289838507
1.289770994
1.289746428
1.289831661
1.289927867
1.289891584
1.289769888
1.289733548
1.296414711
1.285288714
1.288264874
1.289711627
1.287763156
1.289632596
1.287504867
1.289524542
1.288165362
1.28960912
1.288854276
1.289819865
1.289606084
1.289835097
1.289679066
1.28985656
1.289943768
1.28994077
1.289798562
1.289731382
1.294851955
1.334416092
1.21814493
1.316186044
1.205143788
1.294314312
1.203740094
1.281446225
1.214863933
1.28306873
1.234532886
1.295093001
1.256797373
1.308881766
1.276246013
1.319266639
1.287426303
1.321594794
1.286634754
1.314323032
1.277208418
1.217037051
1.287765994
1.289716142
1.289756265
1.289662036
1.289707483
1.289623734
1.289528881
1.289559814
1.289655116
1.289831425
1.289859128
1.289761135
1.289696546
1.289768204
1.289915097
1.290016003
1.289976522
1.290232564
1.329212733
1.216613677
1.287924726
1.289622292
1.289646459
1.289698499
1.289714372
1.289636516
1.289591399
1.289671699
1.289741485
1.289791076
1.289836234
1.289868843
1.289888638
1.28989956
1.289945934
1.289989922
1.289961508
1.290240661
1.32968823
1.217038481
1.28815576
1.289583517
1.28955511
1.289674211
1.289643548
1.289612007
1.289668384
1.289754468
1.289757576
1.289677523
1.289753588
1.289925079
1.290026008
1.289980751
1.28993699
1.289928091
1.28991826
1.290225794
1.33146156
1.216021721
1.288278914
1.289659563
1.289576798
1.289618613
1.289556543
1.28963105
1.289770114
1.289774212
1.289709174
1.289604162
1.289678162
1.289902031
1.290060663
1.290011749
1.289924083
1.28987535
1.289899716
1.290239533
1.332586707
1.217173855
1.288267379
1.289721508
1.289638961
1.289571361
1.289537167
1.289673045
1.289784141
1.289717224
1.289662482
1.289704197
1.289694055
1.289847212
1.289995628
1.289999495
1.289928357
1.289864735
1.289909136
1.290245376
1.335384393
1.216226382
1.287985667
1.289703415
1.28970135
1.289567777
1.289600603
1.289726222
1.289706894
1.289599433
1.289664902
1.291735595
1.289841243
1.289816028
1.289891841
1.289969246
1.289950564
1.289894002
1.289931762
1.290229105
1.336104209
1.218840805
1.287906519
1.289676924
1.289758774
1.28961999
1.289662853
1.289759982
1.289633217
1.289510792
1.290947996
1.331064447
1.290670786
1.289779242
1.289807653
1.289962144
1.290003137
1.28994677
1.289940949
1.290138949
1.338484911
1.218565126
1.28794302
1.289681504
1.289777027
1.289660649
1.289652851
1.289745689
1.289599536
1.289533626
1.29477051
1.379557765
1.292149828
1.289773139
1.289799142
1.289995038
1.290071894
1.290005591
1.289931911
1.290032995
1.337789725
1.223290536
1.288359286
1.289698563
1.289734372
1.289631031
1.28957488
1.289688488
1.289646262
1.289561128
1.290127154
1.309709025
1.290094886
1.289800508
1.289842484
1.289997167
1.290091811
1.290025244
1.289911686
1.289924903
1.338529376
1.22404402
1.288549885
1.289684966
1.289652907
1.289573751
1.289527956
1.289634873
1.289713693
1.289717055
1.289695838
1.29044016
1.289824602
1.289886415
1.289895421
1.289961929
1.290037508
1.289997525
1.289897603
1.289900466
1.335791717
1.231169153
1.288787553
1.289659814
1.289593725
1.289562792
1.289573064
1.289625696
1.289717763
1.289782562
1.289718438
1.289692547
1.28982221
1.289936644
1.289920545
1.289910717
1.28995603
1.289953373
1.289904881
1.289903997
1.334628093
1.231999091
1.288696367
1.289654139
1.289589228
1.289623162
1.28968523
1.289666977
1.289673145
1.289721892
1.289723093
1.289744406
1.289854327
1.2899274
1.289907913
1.289871274
1.289886423
1.289914858
1.289929675
1.289970559
1.32994967
1.242032042
1.288894741
1.289693255
1.289632724
1.289686692
1.289766533
1.289724606
1.289626367
1.289607773
1.289717902
1.28984281
1.289867549
1.289866909
1.289886392
1.28987175
1.289850367
1.289876708
1.28993568
1.289996225
1.327279118
1.242608274
1.288943274
1.289712353
1.289693496
1.289706243
1.289767878
1.289759164
1.289632084
1.289568139
1.289741977
1.289894117
1.289816698
1.289781232
1.289872321
1.289903366
1.289855456
1.289840668
1.289903839
1.290006407
1.321210447
1.255156379
1.289321359
1.289708844
1.28971716
1.289680435
1.289716674
1.289764912
1.289693677
1.289657521
1.289787708
1.289853319
1.289728971
1.28972001
1.289865378
1.28993141
1.289877606
1.289822479
1.28984959
1.289934578
1.317682088
1.254879755
1.289397604
1.289694884
1.289715132
1.289670865
1.28969715
1.289741468
1.28976396
1.289805077
1.289823649
1.289773245
1.289700029
1.289722262
1.289850131
1.289910745
1.289885713
1.289825498
1.28980217
1.289876071
1.311173484
1.269551099
1.289599066
1.289708214
1.289697705
1.289697837
1.289691101
1.289698979
1.289790468
1.289870521
1.289799463
1.28972519
1.289751097
1.289791517
1.289825369
1.289837291
1.289861549
1.289842495
1.289786891
1.289797207
1.307507793
1.267384797
1.28951215
1.28972291
1.28965298
1.289756582
1.289663544
1.289683314
1.289755542
1.28982012
1.289705747
1.289705003
1.289834239
1.289892092
1.2898028
1.289748033
1.289825874
1.289868612
1.289805512
1.289777622
1.301028503
1.283763473
1.287577252
1.289646698
1.286616971
1.289660502
1.286513791
1.289456766
1.28752091
1.28956903
1.28863688
1.289715081
1.289639974
1.289988802
1.289889355
1.289835989
1.290012541
1.289948926
1.289954919
1.289813229
1.297572323
1.341552881
1.203043896
1.31774842
1.1853294
1.289117902
1.183877829
1.272189806
1.200648843
1.274408882
1.228621821
1.289993278
1.259871747
1.308758037
1.287429269
1.323236993
1.3035104
1.324974169
1.301476781
1.312425248
1.28727299
1.187967001
1.286453081
1.289775945
1.289829314
1.289563654
1.2896887
1.28986625
1.289572957
1.289316282
1.289588988
1.289965578
1.289863505
1.289600608
1.289738648
1.289976279
1.289866772
1.289841252
1.289874466
1.290282362
1.356878139
1.186858004
1.286460788
1.289610446
1.289635468
1.289714004
1.289817126
1.289764246
1.289587904
1.289601116
1.289824528
1.289897314
1.289785965
1.28974073
1.289879033
1.289926559
1.289889713
1.289897933
1.289952019
1.290309534
1.358186401
1.187105582
1.286570953
1.289554459
1.289545614
1.289783316
1.289786704
1.289593881
1.289658853
1.289878939
1.289870776
1.289701268
1.289721262
1.289902124
1.289939759
1.289825515
1.289884594
1.289923704
1.289959351
1.290236455
1.361645716
1.18478994
1.286591813
1.289681832
1.289676997
1.289747123
1.289590108
1.289495131
1.289812749
1.289993369
1.289665435
1.289477336
1.289726787
1.290047697
1.289949277
1.289789649
1.289906092
1.289936786
1.289916599
1.2901108
1.365030861
1.185790577
1.286645558
1.289806785
1.289828469
1.289662884
1.289443781
1.289563514
1.28995544
1.289930655
1.289527892
1.291048237
1.28977822
1.290084466
1.289899245
1.28980059
1.289948124
1.289944263
1.28987129
1.289947664
1.370337457
1.18359184
1.286321554
1.289771873
1.289874399
1.289607925
1.289461363
1.289746921
1.290023878
1.289817039
1.290543187
1.326617829
1.290132856
1.290068352
1.289807003
1.28977716
1.289976858
1.289955608
1.289857181
1.289856483
1.373606429
1.186703743
1.286303766
1.289659527
1.289804164
1.289645465
1.289582489
1.289853366
1.290012241
1.290345535
1.313697376
1.623249364
1.302656598
1.290195919
1.289711224
1.289718055
1.29000066
1.289993012
1.2898805
1.289757655
1.377608125
1.185671696
1.286383744
1.289552121
1.289682595
1.289717219
1.289689414
1.289825077
1.289957161
1.291725343
1.340392775
1.567498368
1.320243181
1.290994111
1.289665618
1.289706598
1.290038525
1.290051256
1.289913295
1.289684575
1.378061288
1.191876088
1.287054193
1.289588265
1.289619937
1.289746789
1.289684902
1.289683983
1.289837535
1.290138959
1.303055119
1.423103127
1.295509877
1.290089347
1.289692878
1.28972962
1.290056139
1.290069911
1.289914639
1.289589217
1.378398558
1.192696749
1.287299049
1.28971103
1.289633434
1.289708231
1.289623646
1.289540167
1.289762843
1.289962265
1.290254673
1.306200281
1.28989976
1.290033383
1.289786297
1.289776388
1.290024084
1.290025243
1.289887488
1.289577861
1.374512892
1.20269615
1.287769728
1.289797729
1.289681522
1.289649773
1.289581895
1.289531025
1.289765691
1.289970836
1.289816687
1.29046542
1.289761464
1.290021041
1.28989631
1.289831849
1.289955425
1.289940272
1.289865138
1.289609358
1.37086099
1.204033019
1.287625477
1.289751381
1.289735664
1.289635642
1.289613462
1.289706639
1.289854822
1.289827409
1.2896524
1.289670555
1.289797581
1.289941932
1.289939493
1.289886474
1.289898082
1.289862625
1.289861108
1.289736245
1.362903392
1.218711943
1.288018226
1.289689921
1.289783191
1.289661454
1.289639154
1.289923815
1.289985554
1.289651842
1.289504363
1.289737198
1.289883807
1.28984544
1.289889944
1.289920556
1.289880093
1.289818729
1.289852585
1.289801555
1.356288162
1.220218616
1.28810125
1.289660183
1.289838181
1.289707004
1.28962938
1.289967366
1.290014793
1.289567563
1.28949374
1.289861483
1.289960551
1.289742359
1.289776864
1.289929496
1.289905078
1.289811977
1.289830893
1.289857268
1.345702354
1.238427805
1.288876239
1.289713878
1.289865243
1.289725471
1.289626019
1.289851026
1.289861904
1.28958395
1.289632265
1.289931427
1.289928059
1.289694879
1.289719108
1.289902958
1.289914897
1.289826317
1.289805823
1.289804589
1.337967783
1.238713957
1.289075281
1.289792683
1.289818204
1.289751873
1.289724261
1.289705292
1.289648423
1.289680232
1.289817836
1.289911294
1.289848038
1.289732086
1.289761662
1.289863793
1.289879624
1.289847803
1.289804054
1.289794023
1.327082311
1.26006885
1.289553319
1.289811097
1.289690872
1.289793261
1.289861585
1.289630464
1.289552324
1.289773624
1.289898242
1.289815207
1.289770973
1.289833435
1.289865893
1.28980049
1.28978347
1.289837981
1.289840093
1.28978578
1.319600787
1.25722586
1.289396191
1.289710894
1.289477079
1.28983567
1.289835111
1.289666422
1.289539833
1.289834237
1.289847432
1.28965469
1.289682757
1.289962713
1.289966566
1.289732958
1.289667741
1.289808077
1.289879518
1.28984737
1.309422513
1.281131655
1.286331978
1.28949414
1.284249961
1.289417691
1.284431791
1.2888297
1.286011013
1.289181085
1.288200356
1.289469166
1.28932168
1.290159816
1.290225763
1.289900837
1.289929899
1.289751939
1.29002512
1.289808979
1.302463701
1.349129574
1.180666229
1.313981207
1.155004959
1.269504306
1.152071323
1.2424532
1.176101529
1.25064282
1.215913704
1.280227617
1.258424394
1.313337709
1.295751871
1.341016925
1.316905698
1.349032809
1.308993739
1.33041938
1.284216876
1.157051737
1.284624296
1.289740356
1.289940017
1.289413714
1.289366493
1.289957017
1.289993909
1.289676705
1.289514818
1.289527726
1.28976764
1.289912883
1.289946126
1.289976782
1.289922384
1.289722904
1.289717212
1.290192654
1.389522258
1.154658361
1.284350979
1.289644776
1.289724263
1.289707086
1.289745765
1.289889978
1.289749375
1.289551255
1.289666832
1.289777077
1.289757063
1.289756939
1.289836417
1.28989628
1.289927489
1.289879395
1.2898704
1.290189316
1.392071477
1.154196763
1.284208615
1.289565261
1.28956686
1.289891452
1.289929039
1.289685128
1.289558985
1.289469619
1.289764822