/*--------------------------------*- C++ -*----------------------------------*\
| =========                 |                                                 |
| \\      /  F ield         | OpenFOAM: The Open Source CFD Toolbox           |
|  \\    /   O peration     | Version:  5.x                                   |
|   \\  /    A nd           | Web:      www.OpenFOAM.org                      |
|    \\/     M anipulation  |                                                 |
\*---------------------------------------------------------------------------*/
FoamFile
{
    version     2.0;
    format      ascii;
    class       volScalarField;
    location    "9.6";
    object      T;
}
// * * * * * * * * * * * * * * * * * * * * * * * * * * * * * * * * * * * * * //

dimensions      [0 0 0 1 0 0 0];

internalField   nonuniform List<scalar> 
30538
(
279.2308331
273.1152714
272.9875835
272.9777388
272.9815454
272.9869972
272.9909588
272.9977314
273.0033625
273.0071857
273.0093384
273.0173225
273.0299151
273.0386914
273.0381561
273.0347701
273.0328322
273.0304432
272.998129
271.4407299
279.2417286
273.1031705
272.9827822
272.9754512
272.9758115
272.9798483
272.9829212
272.9887616
272.9945826
273.0007949
273.0052681
273.0119556
273.0208525
273.0285594
273.0309473
273.029949
273.0272064
273.0233916
272.9907439
271.4523534
279.1351841
273.0933738
272.9841908
272.9809525
272.977615
272.9794985
272.9819315
272.986591
272.9925015
273.0014398
273.0088621
273.0137781
273.0179384
273.0242486
273.0301788
273.0322202
273.0288533
273.0231639
272.990371
271.4067169
279.1756414
273.0871758
272.9846456
272.9841716
272.9784288
272.9789602
272.9818545
272.9861226
272.9914233
273.0014084
273.0109226
273.0148874
273.0154911
273.0206889
273.0295628
273.0344166
273.0307224
273.0230672
272.9903261
271.4546359
278.9353691
273.0809434
272.9838793
272.9837765
272.9780127
272.9781589
272.982467
272.9875578
272.9915406
273.0002985
273.009656
273.014392
273.0148298
273.0193562
273.0291471
273.0356947
273.0324406
273.0234009
272.9905409
271.3479729
278.9774626
273.0828985
272.9825285
272.9802548
272.9766753
272.9773742
272.9833252
272.9895741
272.9927946
272.9985967
273.0058303
273.0123816
273.0158574
273.020115
273.0287138
273.0357413
273.0334513
273.0242913
272.9917619
271.4398056
278.5783603
273.077594
272.9810374
272.9759045
272.9754555
272.9773255
272.9831517
272.9902938
272.9946077
272.9980032
273.0026322
273.0106947
273.0173027
273.0217794
273.027792
273.0341591
273.0332548
273.0250595
272.9935316
271.3021229
278.618501
273.0760213
272.980331
272.9741148
272.9759441
272.9786581
272.9821275
272.9886859
272.9946994
272.9983736
273.0024627
273.0106467
273.0187734
273.0232262
273.0262983
273.0313722
273.0317211
273.0256613
272.9962336
271.4519526
278.0534587
273.0635408
272.981531
272.9759927
272.9787139
272.9811571
272.9811154
272.9856733
272.9925907
272.9989766
273.0041943
273.0115593
273.0193428
273.0239307
273.0251241
273.0281847
273.02953
273.0263294
272.9997423
271.3148001
278.1021906
273.0592616
272.984334
272.9804714
272.9814027
272.9828858
272.9811047
272.9832969
272.9903059
272.9989487
273.0054595
273.0118693
273.0185989
273.0239461
273.0251754
273.0264186
273.0279665
273.0270391
273.0036146
271.5524599
277.3753936
273.0464098
272.9868144
272.984034
272.9820326
272.9823059
272.9817837
272.9836642
272.9900685
272.999118
273.005701
273.0106724
273.0166193
273.0235687
273.0266424
273.0269683
273.0272928
273.0273341
273.0069229
271.4392664
277.4556718
273.0438811
272.9880832
272.9850459
272.9804908
272.9797374
272.9822132
272.9861091
272.9921482
272.9996275
273.0051762
273.0087489
273.0140044
273.0226402
273.0287307
273.0292229
273.0273276
273.0261034
273.0076789
271.7514961
276.5433415
273.0303041
272.9877927
272.9847081
272.9799113
272.9783512
272.9828649
272.9889148
272.9946944
273.0003374
273.0045874
273.0078536
273.0123183
273.0212112
273.0295961
273.0310398
273.027026
273.0229456
273.0056042
271.6358959
276.6647236
273.0267289
272.9875085
272.9849943
272.982106
272.9807498
272.9842773
272.9899975
272.9949354
272.9998652
273.0046161
273.0088307
273.0125952
273.0198449
273.0280154
273.0303746
273.0255924
273.0191255
273.00227
272.0134389
275.5808283
273.0133923
272.987906
272.9869969
272.9869936
272.9864949
272.9871193
272.9895573
272.9930506
272.9983163
273.0048195
273.0111202
273.0147311
273.0188138
273.0240349
273.0264822
273.0227274
273.0159078
273.0011915
271.9127872
275.7740445
273.0119995
272.9892951
272.9896717
272.9921494
272.9927527
272.9909522
272.9899547
272.9914407
272.996634
273.0041631
273.0120135
273.016562
273.018081
273.0192499
273.0206948
273.0187822
273.0144251
273.0028222
272.3465965
274.5358342
273.0037412
272.9910744
272.9914964
272.9952653
272.9968469
272.9949337
272.9921302
272.9924143
272.9960692
273.0024368
273.0100903
273.015871
273.0167564
273.0152096
273.0147266
273.014553
273.014175
273.0071977
272.2750105
274.8313845
273.0067967
272.9935196
272.9955031
272.9959445
273.001292
272.9982853
272.9980041
272.9960491
272.9987578
273.0002693
273.0062611
273.012272
273.0138167
273.011961
273.0096971
273.0102555
273.0131052
273.01108
272.7375303
273.4479713
273.1496819
273.0008682
273.200514
272.9956918
273.2211888
273.0051156
273.1814151
273.0045023
273.1140098
272.9995836
273.0595024
273.0027889
273.0368801
272.996992
273.0178919
272.9946506
273.018581
273.007215
272.656579
265.5879678
284.070506
267.2569634
285.4493243
269.3012911
285.5447099
270.6369603
284.3130706
271.026209
282.1372745
270.5410504
279.5542332
269.7228871
277.2248569
269.140275
275.7064179
269.126646
275.3188547
269.7234176
275.9262072
280.3249181
273.1309742
272.9889499
272.9819142
272.9811995
272.9832271
272.987761
272.9952563
273.0008121
273.0058792
273.0083515
273.013501
273.0222503
273.0318036
273.0351435
273.0323933
273.0282007
273.0250792
272.9876775
270.9955593
280.3438085
273.1207715
272.9839211
272.9782585
272.975734
272.9774327
272.9812337
272.9871916
272.9914836
272.9974527
273.0024768
273.0082741
273.0148733
273.0222535
273.0264168
273.0261521
273.0227415
273.0187612
272.9809555
271.0000313
280.2261201
273.1126824
272.9841061
272.9806698
272.9771775
272.9789433
272.9820307
272.9859436
272.9887144
272.9957682
273.0039384
273.0104804
273.014217
273.0187508
273.0239522
273.0270481
273.02495
273.019803
272.981228
270.9332292
280.2785438
273.1083874
272.9829346
272.9808883
272.9778203
272.9797907
272.9825333
272.9856354
272.9878683
272.9953188
273.0046644
273.0117073
273.0138915
273.0164687
273.0222586
273.0280822
273.027223
273.0209017
272.9817992
270.9584926
280.0118271
273.1022443
272.9813717
272.9793257
272.9778902
272.9795677
272.9818877
272.98605
272.9895152
272.9960345
273.0036846
273.0106557
273.0140186
273.0163446
273.0216337
273.02855
273.0285486
273.0215799
272.9828094
270.8278296
280.0706857
273.1042323
272.9811802
272.9772601
272.9774512
272.9784996
272.9802177
272.9865368
272.9926458
272.9970747
273.0010207
273.0078616
273.0141518
273.0179296
273.0219263
273.0280288
273.0282389
273.0217112
272.9845664
270.8911162
279.6239639
273.0971783
272.9818325
272.9759335
272.9765344
272.9773254
272.9786699
272.9864056
272.9950661
272.9982544
272.9991636
273.0056932
273.0142892
273.0198051
273.0225897
273.026404
273.0263485
273.0214404
272.9873278
270.7406587
279.6670736
273.0943103
272.9826972
272.9762004
272.9761324
272.9770472
272.978411
272.9858836
272.9945467
272.9985639
273.0000755
273.0058596
273.014521
273.0209948
273.0230285
273.0243286
273.0239975
273.0213271
272.9907857
270.8816661
279.0237586
273.0777821
272.9829561
272.9776164
272.976838
272.9783631
272.9800097
272.9852839
272.9911644
272.9973512
273.0021441
273.0075582
273.0143671
273.0207912
273.0231442
273.0230103
273.0224917
273.0216246
272.994804
270.7522088
279.0610687
273.07096
272.9831506
272.9800126
272.9785831
272.9802139
272.9826488
272.9851127
272.987947
272.9954248
273.003318
273.0087387
273.0132104
273.0192693
273.0230339
273.0233888
273.0225504
273.021917
272.9969921
270.9987008
278.2237991
273.0545039
272.9838139
272.9823537
272.9802704
272.9810713
272.9838068
272.9856344
272.9876889
272.995028
273.0035136
273.008673
273.0114981
273.017355
273.023186
273.0251874
273.0237415
273.0215149
272.997822
270.9052557
278.2888991
273.0521919
272.9854614
272.9841407
272.9809213
272.980031
272.9827308
272.9860915
272.9900704
272.996248
273.0030127
273.007771
273.0105329
273.0159969
273.0230009
273.026734
273.0246708
273.0200828
272.996186
271.2570175
277.2357983
273.0378522
272.987095
272.9847345
272.9815614
272.9793662
272.9812894
272.9864517
272.9927517
272.9979472
273.00229
273.0071342
273.0109757
273.0157575
273.0219356
273.0262303
273.0242947
273.0182949
272.9957577
271.1862337
277.3390877
273.0354528
272.9880429
272.9848329
272.9829221
272.981191
272.9822489
272.9871309
272.9933555
272.9978079
273.0014468
273.0070609
273.0125514
273.0163991
273.0198053
273.0234066
273.0224974
273.0170534
272.9963792
271.6245111
276.0854062
273.0197865
272.9880754
272.985347
272.9856476
272.9856848
272.9859494
272.9882183
272.9923012
272.9962306
273.0004234
273.0073278
273.0140429
273.0169538
273.0173908
273.0194057
273.0195833
273.0161175
272.9998237
271.5786479
276.2649539
273.0171173
272.988656
272.9874053
272.9889685
272.9904846
272.9904327
272.9902584
272.9917089
272.9950882
272.9996287
273.0062785
273.0132308
273.0157948
273.0153466
273.0157836
273.015876
273.0145106
273.0025107
272.0826247
274.8278213
273.005309
272.9907195
272.9902975
272.9916044
272.9931825
272.9933517
272.9921238
272.9929484
272.9956906
272.9996146
273.0041643
273.0091747
273.0126565
273.013738
273.0130673
273.0120624
273.0115986
273.0046807
272.0532628
275.1312381
273.0075929
272.9943272
272.9971212
272.9932948
272.9974071
272.9945698
272.9967206
272.9958518
272.9998325
273.0005768
273.0023151
273.0036207
273.0080635
273.0115963
273.0105767
273.0081799
273.0078346
273.0042891
272.5866548
273.5291589
273.1679226
273.0048185
273.2323293
272.9998783
273.2472121
273.0070222
273.2010433
273.0070743
273.1262487
273.0026652
273.0607542
272.9965595
273.029747
272.9944468
273.0172175
272.9911498
273.0118951
273.0016598
272.5479718
265.3630517
284.8395638
267.3883312
286.522067
269.8441921
286.6799887
271.3858668
285.2729891
271.6279582
282.7617254
270.7736703
279.8268131
269.573951
277.2274341
268.7103472
275.6205459
268.5982145
275.2917987
269.2788114
276.0891002
281.8488691
273.14815
272.9951653
272.9941512
272.9858256
272.9829282
272.9870624
272.9943948
272.9998773
273.0073619
273.0113511
273.0118554
273.0143214
273.0240904
273.0319987
273.0328949
273.0276623
273.0222033
272.9720787
269.9065002
281.8761651
273.1433861
272.9881001
272.9857137
272.9799153
272.9779587
272.9820323
272.9885475
272.9916462
272.9962533
273.0015721
273.0065137
273.010314
273.016079
273.0212407
273.0236047
273.0207082
273.0163828
272.9666205
269.9019768
281.7673545
273.1421483
272.986482
272.9817624
272.9800344
272.980789
272.9849639
272.9896133
272.989708
272.9917309
272.9988707
273.0085557
273.0138543
273.0151079
273.0171171
273.0212125
273.0214672
273.0184031
272.9689928
269.7870698
281.8312373
273.1432877
272.9839543
272.9771004
272.9799444
272.9834931
272.9864652
272.9894389
272.9893806
272.9908199
272.9974871
273.0092656
273.016023
273.0152767
273.0149907
273.0199495
273.0228716
273.0206622
272.9725791
269.7939219
281.5583089
273.1358581
272.9819796
272.9745774
272.9806693
272.9851837
272.9846824
272.9870919
272.9915346
272.9947015
272.9978398
273.007286
273.0151268
273.0166044
273.0154234
273.0197023
273.0230429
273.0214663
272.9753889
269.5875583
281.6045281
273.133423
272.9826352
272.9760819
272.9824813
272.9854372
272.9802171
272.9834924
272.9948256
273.0005842
272.9995495
273.0034173
273.0114327
273.0172859
273.0175995
273.0199783
273.0218582
273.0204397
272.9773717
269.644283
281.1209024
273.1196643
272.9859436
272.9807036
272.9831189
272.9837132
272.9773116
272.9816021
272.996254
273.0038676
273.0000185
273.0006728
273.0079789
273.0176225
273.0203413
273.0202397
273.0196772
273.018655
272.9797268
269.4279386
281.1426565
273.1155344
272.989266
272.9847582
272.9815594
272.9806726
272.9784793
272.9834263
272.9951177
273.0025436
272.9942064
273.0011351
273.0075115
273.0180612
273.0223526
273.020458
273.0179447
273.017508
272.9827329
269.5879404
280.4294806
273.0966259
272.988735
272.9851374
272.9788626
272.9781112
272.9831819
272.9877752
272.9914304
272.9981251
273.0017352
273.0040469
273.0083364
273.0170966
273.022231
273.0209802
273.0181611
273.0176061
272.9864947
269.4417888
280.4248316
273.0915914
272.9853491
272.9829665
272.9778327
272.9787035
272.9882613
272.9918613
272.9887764
272.9931701
273.0015558
273.0065658
273.0092039
273.0144865
273.019951
273.0216567
273.0199808
273.0181756
272.9875763
269.754411
279.4596175
273.0711431
272.9832054
272.981985
272.9807564
272.9820095
272.9896065
272.9921994
272.9889501
272.9920015
273.001331
273.0084503
273.0098519
273.0117604
273.0173862
273.0225308
273.0220958
273.0181567
272.9882342
269.7017386
279.4893988
273.068917
272.9850719
272.9836819
272.9849675
272.9855213
272.9865957
272.9888652
272.9911185
272.9946197
273.0015839
273.0090052
273.01085
273.0107076
273.0154316
273.0224751
273.0227294
273.0171047
272.98634
270.1572469
278.2322394
273.0503685
272.9893196
272.9858282
272.9874737
272.9871996
272.982581
272.9853035
272.9932367
272.9982243
273.0020561
273.008331
273.0119334
273.0118492
273.0141044
273.0202521
273.0216616
273.0162541
272.9885242
270.1769123
278.3151521
273.0498442
272.991834
272.9865239
272.9874871
272.9876391
272.9831797
272.9855255
272.9944634
272.9993734
273.0007614
273.0060426
273.0126605
273.0142854
273.0132712
273.0169679
273.0190754
273.0163669
272.9917913
270.7562515
276.8031291
273.0295915
272.9913472
272.9863583
272.9865614
272.9880443
272.9878145
272.9895781
272.9952411
272.9979466
272.9978494
273.0027556
273.0116546
273.0151756
273.0130781
273.0140095
273.0164727
273.0165372
272.9988765
270.8307111
276.9849228
273.0266515
272.9906335
272.9880266
272.9872157
272.9890652
272.9927731
272.9950744
272.9964758
272.9967924
272.9960784
272.9998637
273.0078446
273.0129024
273.0131214
273.0131739
273.0139801
273.0143792
273.0012963
271.476362
275.2389902
273.0086552
272.9925085
272.9920967
272.9895423
272.9898023
272.994464
272.9974604
272.9973469
272.9971469
272.9976932
272.9989827
273.002283
273.0079062
273.0125984
273.0137376
273.0116823
273.0097229
273.0010397
271.566577
275.5812682
273.0102904
272.997042
273.0022557
272.9927784
272.9956103
272.9938047
272.9998553
272.9976425
273.0008924
273.002875
273.0014484
272.9973466
273.0025526
273.0110285
273.0132775
273.0092999
273.0041459
272.9972891
272.2399808
273.6428607
273.2119477
273.0102973
273.3002123
273.0015317
273.3043378
273.0067537
273.2363054
273.0058266
273.1365524
273.0075822
273.0580323
272.9923191
273.0125183
272.9923477
273.0050134
272.9908821
272.9973032
272.9936158
272.3231404
264.6048371
286.4206659
267.0991586
288.5300515
270.0796861
288.6493028
271.9309202
286.6922166
272.1358234
283.3493842
271.0271096
279.5603539
269.5124013
276.2637655
268.467292
274.3022149
268.4588008
274.0434103
269.5049779
275.1789997
285.3849986
273.2318923
273.0032806
273.005292
272.9936487
272.9908656
272.9894756
272.9917025
272.9983473
273.0096793
273.0152401
273.0124025
273.0100742
273.0156488
273.0217253
273.0285511
273.0295566
273.0249605
272.9561046
267.862369
285.4608042
273.2333711
272.9916365
272.9904683
272.9868589
272.9838144
272.9834897
272.9888754
272.9937436
272.9973529
273.0014787
273.0061644
273.0090892
273.0111956
273.0138289
273.0197731
273.0211885
273.0166918
272.9495911
267.8130699
285.347484
273.2426707
272.9882918
272.9814496
272.9849424
272.9835419
272.9860897
272.9938654
272.9949972
272.9918832
272.9944761
273.00624
273.0145499
273.0143735
273.0131292
273.0167035
273.018825
273.0164065
272.9539605
267.6209786
285.5174135
273.253619
272.9881204
272.9755812
272.9823033
272.9847156
272.9889728
272.9961477
272.9956352
272.9904185
272.9914913
273.0050746
273.0148882
273.0160929
273.0132333
273.0135721
273.0162523
273.0172139
272.960346
267.5209303
285.1849585
273.2382835
272.9883076
272.9746486
272.9819664
272.9878399
272.9894439
272.9922643
272.9957551
272.9960111
272.9951476
273.0024255
273.0106514
273.0164087
273.0148973
273.011933
273.0136464
273.0179686
272.9683734
267.2090456
285.3147918
273.2247477
272.9887823
272.9799563
272.9851467
272.9919106
272.9861519
272.9832083
272.9934036
273.0048915
273.0007098
272.9998171
273.003307
273.0150656
273.0174236
273.0127147
273.0121574
273.0178521
272.9731312
267.1446717
284.6722417
273.1959196
272.9918422
272.9895253
272.9885405
272.9929058
272.9845958
272.978233
272.9893571
273.0065812
272.8082781
272.9979187
272.9969989
273.0128349
273.02079
273.0157122
273.012884
273.0163707
272.97672
266.8599413
284.7586496
273.1907587
272.9960602
272.9960071
272.9882278
272.9883039
272.9861071
272.9811918
272.987645
272.9937858
272.1622512
272.9938427
272.9970408
273.011566
273.0226966
273.0198631
273.0149858
273.0144023
272.9757576
266.9624497
283.8067916
273.1693341
272.9953296
272.9946859
272.9836294
272.9816143
272.9894611
272.9898045
272.9890263
272.9981635
272.9261509
273.0021281
273.0007039
273.0110287
273.021425
273.0224432
273.0176569
273.0133114
272.9767747
266.8452849
283.7956736
273.1706031
272.9901407
272.987723
272.9798239
272.9794653
272.9922329
272.9971385
272.9920655
272.9921207
272.9991801
273.0045807
273.0054179
273.0094194
273.0164381
273.0219073
273.0198131
273.0136497
272.9756554
267.2201629
282.4539359
273.1380922
272.9856357
272.9822762
272.9824783
272.9849735
272.9925628
272.9976206
272.9946382
272.991027
272.9977426
273.0073913
273.0098501
273.0075334
273.0103546
273.018915
273.0210816
273.0151968
272.9800352
267.3159919
282.4342258
273.1298208
272.9872587
272.9821728
272.9892167
272.9935919
272.9902296
272.9919698
272.9949243
272.9949646
272.9988986
273.0097867
273.0129843
273.0076874
273.006505
273.014791
273.020206
273.0167391
272.9818518
267.9676745
280.6445891
273.0928909
272.9928267
272.9853618
272.9932566
272.9984234
272.9864981
272.984351
272.9934936
273.0004922
273.0022993
273.0085895
273.0129687
273.0102281
273.0067833
273.0113399
273.0170783
273.0174335
272.9892349
268.2086261
280.6574003
273.0898221
272.9961394
272.9882265
272.9924345
272.9970629
272.9873724
272.9833132
272.9934542
273.0040681
273.003383
273.0021871
273.0093018
273.0134956
273.0101777
273.0098906
273.012866
273.016459
272.9924512
269.0547545
278.5373122
273.0550375
272.9946164
272.9889206
272.9887367
272.9925511
272.9922868
272.9901824
272.9964826
273.0037392
273.0000594
272.9943398
273.0028303
273.0136916
273.0136504
273.0107549
273.0105371
273.0138229
272.9981779
269.3693874
278.6834974
273.0505438
272.9920175
272.990778
272.9870698
272.9893113
272.9961928
272.9997819
273.0018183
273.0018102
272.9963871
272.9918908
272.997647
273.0096265
273.0143726
273.0130783
273.0102552
273.0097244
272.9957088
270.2967801
276.2328026
273.0179969
272.9932448
272.9947573
272.9891862
272.9872353
272.9963534
273.0048643
273.003584
272.9986917
272.9963397
272.9966733
272.9970086
273.0028916
273.0107529
273.0150793
273.0115818
273.0053762
272.9944492
270.6324079
276.6248068
273.0180633
272.9981438
273.0074846
272.9938805
272.9966986
272.9947001
273.0082387
273.0004647
272.997094
273.0016553
273.0068135
273.0000763
272.9976045
273.005332
273.0143901
273.0127127
273.002561
272.9906132
271.5920775
273.9339983
273.2969495
273.0172909
273.4379605
273.0209592
273.4430882
273.0314479
273.3390604
273.0170839
273.1746571
273.0099562
273.0788027
272.9969584
273.0043378
272.9835615
272.9956748
272.994541
272.9962918
272.9927763
271.9174042
263.8514032
289.0455342
267.5260181
292.1762408
272.0430321
292.4991169
274.7606213
289.8327925
274.4150814
285.2107037
271.8894729
280.1787555
269.0245902
275.8806141
266.8879284
273.5105981
266.4394669
273.6648998
267.8924136
275.6786743
289.2781997
273.347042
273.0118437
273.0081821
273.0002906
273.0048332
272.998333
272.9911707
272.9944664
273.0033527
273.0183126
273.0197727
273.0089168
273.001149
273.0075286
273.0222569
273.0329565
273.0306664
272.9325262
264.9001985
289.3965012
273.3518979
272.9941691
272.989431
272.9938634
272.9960106
272.9899491
272.9870717
272.9948719
273.0016384
273.0055978
273.0081962
273.0084229
273.0078778
273.0089434
273.014932
273.0206803
273.0186622
272.9246326
264.80528
289.330024
273.3648993
272.9907155
272.981762
272.9920709
272.9902302
272.9881327
272.9940426
273.0023752
273.0033075
272.9958636
273.0008275
273.0129204
273.0193249
273.0154812
273.0135596
273.0146246
273.01438
272.9302026
264.4582277
289.6022965
273.3836846
272.9974901
272.9838167
272.9877426
272.9833111
272.9903248
273.0032473
273.0044815
272.9993742
272.9893961
272.9938599
273.0103755
273.021863
273.0177178
273.0118354
273.0092598
273.0121045
272.9403245
264.2484788
289.3171868
273.3587774
273.0024915
272.9893585
272.9841807
272.9823386
272.9946376
273.0051072
273.0001169
272.9955384
272.9840844
272.9946153
273.0049075
273.0158522
273.016291
273.011613
273.0074951
273.0122354
272.9545531
263.7076487
289.4952598
273.3380294
273.0010812
272.9948342
272.9843694
272.9884678
273.0000658
272.9991468
272.9904296
272.9871984
272.5975784
273.0037197
273.0017482
273.0066787
273.0134233
273.0130414
273.0092666
273.0134883
272.9645686
263.5685326
288.831956
273.2962067
272.9983771
272.9999147
272.9893235
272.9944237
273.0036806
272.9934908
272.9783772
272.7095535
264.5852366
272.853875
272.9965841
272.9991807
273.0126011
273.0172663
273.0132608
273.0137343
272.9729206
263.0894322
288.8986403
273.2967015
272.9989005
273.0017712
272.9934035
272.9942264
273.002978
272.990755
272.9599224
271.8997112
255.2751369
272.5394107
272.9893058
272.9980751
273.0153461
273.0231235
273.0181147
273.0126606
272.9727233
263.2064095
287.8203043
273.2756413
272.9995239
272.9984607
272.9913762
272.98811
272.9982951
272.9948727
272.985695
272.8862209
268.8561403
272.9556722
272.9986201
273.0015736
273.0155671
273.0251009
273.0199209
273.0110042
272.9760879
263.0452048
287.6787493
273.2879912
272.9985496
272.9918873
272.9867835
272.9842365
272.993787
273.0004401
273.0002189
272.994838
272.8377755
273.0025632
273.0062334
273.0062225
273.0129655
273.0210709
273.0181558
273.0101294
272.9757982
263.5801532
286.0218795
273.2320522
272.9954186
272.9870855
272.9858853
272.9879065
272.9926746
273.0004595
273.0054047
272.9986052
272.9900511
273.0027422
273.0105105
273.0086687
273.0091565
273.0150618
273.0153224
273.0114
272.9834568
263.8177979
285.8038566
273.2122552
272.9948676
272.9866632
272.9907394
272.9969473
272.9956474
272.9960159
272.9997171
272.9986415
272.9985567
273.0054295
273.0099402
273.0080197
273.0065597
273.010222
273.0132407
273.0143895
272.9864455
264.7600361
283.4661219
273.142602
272.9971279
272.9902129
272.9954841
273.002807
272.9996516
272.9912695
272.9894597
272.9978779
273.0066524
273.0066317
273.0050115
273.0066452
273.0073209
273.0081582
273.0111327
273.0158178
272.9946139
265.3028147
283.3351917
273.1379303
272.9987287
272.9952714
272.9963568
273.0019409
273.0015105
272.9909533
272.9854909
272.9995803
273.010958
273.002426
272.9980652
273.0059299
273.0106114
273.0093046
273.0089063
273.0137858
272.9925212
266.5225308
280.5275403
273.0829909
272.9974762
272.996963
272.9934052
272.9966613
273.0011821
272.995443
272.9925212
273.0030503
273.0072979
272.9950076
272.9931785
273.0056803
273.0132959
273.0113924
273.0076919
273.0095509
272.9937868
267.2296021
280.6058214
273.0841427
272.9961096
272.9964275
272.9919992
272.9941492
272.9985653
273.000859
273.0045482
273.0056689
273.0003765
272.9929127
272.9939116
273.0048303
273.0116521
273.0119427
273.007911
273.0055716
272.9878457
268.5476109
277.3578155
273.032838
272.9964255
272.994839
272.9938514
272.993468
272.9944448
273.0029133
273.0099286
273.0035844
272.9965247
272.9978812
273.0005888
273.0034062
273.0056086
273.0097583
273.0091259
273.0041775
272.9900894
269.2951727
277.8111358
273.0343737
272.9972148
273.0085527
272.9989414
273.0099066
272.9936598
273.0107999
273.0058388
272.999083
272.9951904
273.0061214
273.0100495
273.0019503
272.998469
273.0063902
273.0111493
273.0053634
272.9909592
270.6345463
274.2580054
273.4401842
273.0143444
273.6571609
273.030813
273.6748646
273.0500486
273.4705501
273.0289472
273.2085398
273.0017995
273.0640214
272.9980361
272.9786516
272.9672311
272.9538352
272.9892025
272.9801507
272.994747
271.3590555
262.4502114
292.675211
267.1923335
297.0567059
273.1480255
297.4102473
276.7634255
293.2652335
276.2780328
286.577235
272.9511419
279.4984411
269.0649358
273.4935247
266.0793539
270.1187667
265.7579327
270.5588709
268.2936329
273.5289553
296.39144
273.6860723
273.0284994
273.0153934
272.9938326
273.0056803
273.0214797
272.9972596
272.9760289
272.9996142
273.0303561
273.0196449
272.9936986
273.00441
273.0270832
273.0207378
273.0196484
273.0228195
272.933494
259.5107798
296.6576194
273.679681
273.0049053
272.9895969
272.9968128
273.006896
273.0030914
272.9889467
272.9907666
273.0102536
273.0152048
273.0029977
272.9960293
273.006613
273.0126997
273.0125517
273.0141821
273.0181843
272.9289863
259.2579473
296.6077562
273.685095
272.9999372
272.9820157
273.0028972
273.0047161
272.9890506
272.9958869
273.0155002
273.0146317
272.9987696
272.9973289
273.0098752
273.0119274
273.0038309
273.0115291
273.0155274
273.018141
272.9421127
258.5983752
297.2195774
273.7223455
273.0120401
272.9937151
273.0001936
272.9883482
272.9811699
273.0100949
273.0259692
272.9976634
272.968643
272.9978236
273.0222494
273.0127973
273.0004382
273.0126676
273.0155618
273.0136455
272.9558175
257.9566609
296.9646256
273.6911842
273.0223536
273.0071378
272.9935237
272.9763045
272.9877045
273.0234131
273.0213632
272.9752653
272.6053964
273.0005056
273.0251284
273.0085293
273.0009963
273.0158365
273.0149084
273.0088459
272.9792004
256.961773
297.4791211
273.6883674
273.0202183
273.0114424
272.9893832
272.9782545
273.0041836
273.0300099
273.0067778
272.7411855
265.3319258
272.9566832
273.0230866
273.0007413
272.9988797
273.0179333
273.0147046
273.006632
273.0022176
256.3530957
296.6649942
273.6357648
273.0097243
273.0058014
272.9932855
272.9889668
273.0137507
273.0272479
272.8538645
267.9137194
216.9415012
270.3749532
272.9745154
272.9921874
272.9934947
273.0197132
273.0170679
273.0078056
273.0301484
255.6050972
296.9271811
273.6407199
273.0008795
272.9957935
273.0002614
272.9986712
273.0116128
273.0168143
272.544814
262.5753898
224.5829425
266.806788
272.783802
272.9861566
272.9920578
273.0228805
273.0216969
273.0102603
273.042996
255.5118769
295.426059
273.589412
273.0012698
272.9906755
273.003203
272.9986651
272.9996554
273.0127627
272.9296469
270.1659665
247.350832
271.8380494
272.9894253
272.9891388
272.9936793
273.0245854
273.0233595
273.0103914
273.052513
255.4377558
295.2654469
273.6039433
273.0117929
272.9921265
272.9998526
272.9933516
272.9870691
273.0072196
273.0213946
272.9114135
269.5109359
272.9811888
273.0181554
272.9970375
272.9979226
273.0220914
273.0199783
273.008432
273.047183
256.1558742
292.806204
273.4892856
273.0156572
272.996202
272.9946735
272.9895066
272.9856564
273.0064863
273.0234159
273.0043752
272.8044335
272.9972566
273.0173122
273.006667
273.003122
273.0166352
273.0134158
273.006945
273.0466982
256.8470866
292.4411605
273.4434199
273.0107551
273.0003861
272.9928491
272.9915257
273.0000894
273.01333
273.010121
272.9935957
272.9875058
273.000528
273.010436
273.010608
273.0084064
273.0120952
273.0076385
273.007044
273.0356789
258.3621095
288.8798589
273.2992415
273.0017014
273.0038582
272.9941044
272.9925235
273.0178231
273.0237582
272.9947834
272.9805791
272.9980133
273.0076132
273.002255
273.0067643
273.0117684
273.0108299
273.0047435
273.0066532
273.0307711
259.6303142
288.5223448
273.2793912
272.9982503
273.0080555
272.9970415
272.9908865
273.020673
273.0252004
272.9872993
272.9792983
273.0084467
273.0140658
272.9936244
272.9973009
273.0129027
273.0133774
273.0048759
273.0051466
273.0122899
261.6669797
284.3204101
273.1644169
272.9994722
273.0094747
272.9976988
272.9898476
273.01005
273.0114663
272.9877878
272.9905787
273.0139464
273.0112317
272.9898033
272.9926191
273.0109976
273.0145783
273.0065655
273.0034119
273.0049676
263.1656044
284.2760258
273.1682586
273.0055351
273.0047907
272.9992181
272.9975583
272.9969197
272.9925705
272.9950722
273.005876
273.0120205
273.0046367
272.9935415
272.9967074
273.0078746
273.0116597
273.0086384
273.0036931
272.9910407
265.315471
279.4464257
273.0720124
273.0051168
272.9941222
273.0021894
273.0095335
272.9899339
272.9838895
273.0027914
273.0126221
273.0041867
272.9987934
273.0034513
273.0067284
273.0029876
273.0036173
273.0079425
273.0071976
272.9952846
266.8228277
280.0593816
273.0773669
272.996044
273.0149499
273.006778
273.0491948
272.9964093
273.0051885
273.0093568
273.0148749
272.991083
272.9930413
273.0156488
273.016003
272.9979153
272.9936406
273.0056046
273.010772
272.9972319
268.9059006
274.8356752
273.71085
273.0125927
274.1035688
273.0957517
274.1913125
273.2009388
273.7687034
273.1354406
273.3368624
273.0085858
273.0584027
272.9753669
272.9644313
272.9555957
272.9245632
273.0027269
272.9808893
273.0171124
270.3504621
260.9934337
298.2282199
267.9294865
304.8406385
277.3705677
305.6369115
283.400085
299.383943
281.5411317
289.5744123
275.0135672
279.7970037
268.1243503
271.7679009
262.563669
267.346965
260.9951622
269.0082739
264.6776942
274.1864231
304.3452312
274.1453441
273.04736
273.0265128
272.9830977
272.9794402
273.0311465
273.0350469
273.0069753
272.9951634
272.9930206
273.0099849
273.0177488
273.021197
273.027322
273.0255875
273.0073279
273.0063493
272.9550852
253.4206556
304.9354381
274.1470034
273.030893
272.9994194
272.9978653
273.002058
273.0149288
273.0039228
272.9875568
272.9974219
273.0041754
272.998415
272.9954055
273.002688
273.010776
273.0159976
273.0108287
273.0084033
272.9543099
252.9566911
305.0382937
274.1420971
273.0245962
272.98609
273.0140878
273.0188306
272.9982667
272.9878973
272.9798132
273.0052151
273.0201247