/*--------------------------------*- C++ -*----------------------------------*\
| =========                 |                                                 |
| \\      /  F ield         | OpenFOAM: The Open Source CFD Toolbox           |
|  \\    /   O peration     | Version:  5.x                                   |
|   \\  /    A nd           | Web:      www.OpenFOAM.org                      |
|    \\/     M anipulation  |                                                 |
\*---------------------------------------------------------------------------*/
FoamFile
{
    version     2.0;
    format      ascii;
    class       volVectorField;
    location    "9.6";
    object      U;
}
// * * * * * * * * * * * * * * * * * * * * * * * * * * * * * * * * * * * * * //

dimensions      [0 1 -1 0 0 0 0];

internalField   nonuniform List<vector> 
30538
(
(-0.004348297393 -0.00017140555 -0.007506341529)
(-0.003634207429 -0.001906340372 0.0007664936325)
(-0.01452224972 0.00127047394 0.0001919393155)
(-0.009543440962 -0.0003987613878 0.01105989595)
(-0.02201591759 0.003700660939 0.005992884218)
(-0.001074416956 0.001586418765 0.0101283974)
(-0.009734396356 0.002584154711 0.007579901178)
(0.003002862809 -0.003378126229 0.008173654465)
(-0.01246507922 -0.003359790169 0.007635067865)
(-0.001149781103 -0.007328868814 0.00721683385)
(-0.02308906501 -0.0003857268465 0.01060228665)
(-0.0003800833917 0.002373044241 0.01067832265)
(-0.007420513804 0.006215826583 0.009916687247)
(0.02023054647 -0.0006118068218 0.004404566572)
(-0.003881162478 -0.0009036067155 0.005823568673)
(0.0101615367 -0.001000268759 0.00711191022)
(0.003052266786 0.00365619777 0.009460641919)
(0.02603447993 0.001967702834 0.004654140432)
(0.02418562821 0.002648681921 0.001847277924)
(0.02597788702 -0.000483822837 -0.001566856555)
(-0.00576199716 -0.001869975106 -0.005690436173)
(-0.002593746761 -0.005722210621 0.003423186544)
(-0.01353282772 -0.002251949109 -0.001094522489)
(-0.007782437153 -0.003697929129 0.008317621796)
(-0.02068559905 0.002367508034 0.0048001065)
(-0.001845572112 0.001195939172 0.009249662908)
(-0.01328366887 -0.002367736013 0.007463007868)
(-0.00109908749 -0.00947332933 0.009481481976)
(-0.0152779684 -0.01655953617 0.009432211456)
(0.001041947863 -0.01697260521 0.0085833991)
(-0.01628507973 -0.01074947729 0.009327432318)
(0.004263849697 0.004642612554 0.009397240693)
(-0.009556970763 0.005455767048 0.009816482714)
(0.01518228182 -0.000750326857 0.006255620409)
(-0.004079562018 -0.00659160785 0.007146829508)
(0.01328959213 0.0005406093079 0.006717052515)
(0.005252566607 0.005804570001 0.008099703725)
(0.02534675203 0.006175828465 0.003959877194)
(0.02238115354 0.002486649344 0.001826369914)
(0.02436771107 -0.0003298586119 -0.001338512773)
(-0.009464119801 8.05988436e-05 -0.003299637603)
(-0.003942557682 -0.009526657654 0.007478897031)
(-0.01313973671 -0.002998436942 -0.001841425804)
(-0.006291232794 -0.009382870759 0.005203108833)
(-0.01863040963 0.002826755297 0.002796128297)
(-0.004405134573 -0.003930504987 0.007846951239)
(-0.01728495057 -0.001562565813 0.007265660641)
(-0.006925048505 -0.01259791658 0.01027762291)
(-0.01781387522 -0.01035275517 0.01167041596)
(0.003081215132 -0.01618621771 0.00948960234)
(-0.007912448121 -0.005872789969 0.008107162476)
(0.01109036093 0.002499125489 0.007310021369)
(-0.01128237921 0.009569541912 0.009893093867)
(0.0117085059 -0.0001441668487 0.008233787757)
(-0.002897411889 0.001707496236 0.008591785112)
(0.01881190847 0.005182678144 0.005299834984)
(0.007182527015 0.01368790377 0.006089638963)
(0.02366896559 0.007228682501 0.003221781135)
(0.01961425472 0.004006790461 0.002779678429)
(0.02408893589 -0.003782413648 -0.000408007199)
(-0.01221304741 0.00155932323 -0.001108920087)
(-0.004923409408 -0.01129918078 0.01021344385)
(-0.01311890413 -0.006989966906 -0.001494206809)
(-0.003829943605 -0.01583187948 0.003614148394)
(-0.01669128702 -0.00502815704 0.001673307519)
(-0.004980665627 -0.01326299451 0.007499170733)
(-0.01945709745 -0.01107284508 0.00672174099)
(-0.007199697268 -0.01585583016 0.01072780722)
(-0.01794980859 -0.009057797462 0.01170930489)
(0.004335347698 -0.01009015259 0.01068295582)
(-0.003191152804 -0.0102542719 0.006322111595)
(0.01516838366 -0.003324033492 0.006178162109)
(-0.01142942378 0.001187974474 0.008837753253)
(0.009614343005 0.001931443734 0.0097887075)
(-0.0003210974327 0.005282320746 0.008756254965)
(0.02175689015 0.01011896338 0.003536873919)
(0.006684725127 0.01432224007 0.003736220901)
(0.0185063248 0.008076820676 0.003082897497)
(0.01477153496 0.002600068896 0.00443359257)
(0.02366300938 -0.004115200534 0.001373490223)
(-0.01611784025 0.005379954034 -0.001335015718)
(-0.0101449081 -0.01140420588 0.01002519863)
(-0.01598147136 -0.005310109364 -0.0009460605136)
(-0.005105921378 -0.01971005109 0.003980144837)
(-0.01662115275 -0.006422832738 0.001437630501)
(-0.008728602249 -0.02100716292 0.007558870585)
(-0.01914547147 -0.01225902884 0.006645243048)
(-0.005370767455 -0.01864184499 0.008916989149)
(-0.01386807758 0.0007573361381 0.01079530091)
(0.002360246283 -0.00478693874 0.01009445384)
(-0.003263481553 -0.002848620507 0.006788205701)
(0.01918386183 -0.008666477061 0.005746288596)
(-0.007619291555 0.003079321592 0.008455395145)
(0.01458086051 0.005234831855 0.009531302386)
(0.002813658048 0.01530628938 0.008754504563)
(0.02527588695 0.01094994245 0.001730185876)
(0.00563451023 0.01658781023 0.002285288774)
(0.01538732613 0.007619643293 0.003101575011)
(0.0112608288 0.007953295935 0.006275595569)
(0.02452283539 -0.003442684919 0.00291395196)
(-0.01634914591 0.006716543618 -0.002833345039)
(-0.0124113754 -0.01280017028 0.006553428259)
(-0.01873316306 -0.004801920395 -7.882331211e-05)
(-0.004838028846 -0.02311584783 0.006065700237)
(-0.01745780158 -0.01163486147 0.002272732911)
(-0.009160329644 -0.02730774726 0.008875761609)
(-0.0178482934 -0.01652333227 0.006338064284)
(0.002174487612 -0.02272442535 0.007956775917)
(-0.008331765364 -0.003636234317 0.007043552681)
(0.001981019064 -0.005909230803 0.01052822202)
(-0.006028780623 -0.003035907191 0.005615423965)
(0.01934432879 -0.007833033386 0.007310998632)
(-0.001614028162 0.002965534992 0.006216892829)
(0.0181557226 0.009143235556 0.008446155634)
(0.003705028871 0.01694303193 0.007609174841)
(0.02270069619 0.008595594301 0.001653875891)
(0.004283609329 0.01216668055 0.001788462501)
(0.01240920396 0.009222153664 0.003231400872)
(0.00718768815 0.01332042789 0.006305506741)
(0.01980157318 0.002667167497 0.003458918554)
(-0.02039913321 0.008053115315 -0.005332992523)
(-0.01814529187 -0.01567583261 0.003628875596)
(-0.02294980599 -0.001565351061 8.905296845e-05)
(-0.01018349472 -0.02417771942 0.008416376853)
(-0.01944714103 -0.009149640078 0.003425042593)
(-0.01220540926 -0.02698720634 0.008919005526)
(-0.01597041993 -0.007722657951 0.007112090532)
(0.00393529151 -0.02230190885 0.006414024501)
(-0.002136562013 -0.003619457757 0.005861508846)
(0.00295710572 -0.01042600124 0.00889305463)
(-0.004698431294 0.00652469273 0.0068778128)
(0.02340636702 -0.0005405122809 0.007435470988)
(0.004377000219 0.01575907191 0.005635195916)
(0.02432772621 0.01353154573 0.006165917284)
(0.002470237812 0.02334785418 0.007712302516)
(0.02186051145 0.005999231519 0.003025527256)
(0.006141844926 0.01352435445 0.003238266126)
(0.01621491797 0.01065826749 0.002440136703)
(0.006822809468 0.02170244162 0.004503315587)
(0.01260549683 0.006529677339 0.001789312335)
(-0.0218107799 0.007534957786 -0.005758581163)
(-0.01909194044 -0.02009792466 0.002153593229)
(-0.02430052298 -0.002427701214 0.0006811074598)
(-0.01048196988 -0.02676231802 0.009592980227)
(-0.01919107783 -0.008359360072 0.003582850506)
(-0.008218623076 -0.0257504554 0.008433227571)
(-0.014631823 -0.0007640609074 0.006304838636)
(0.005307578088 -0.02049779431 0.00752858766)
(-0.0001352875235 -0.006420441553 0.003767479081)
(0.009313652486 -0.01515299197 0.008833220581)
(0.0008950564095 0.01109877828 0.001880332177)
(0.02580192374 0.005185125723 0.007170203557)
(0.008359232717 0.02158730841 0.002256766572)
(0.02339747578 0.01453347552 0.004189033272)
(-0.001571717725 0.02460919819 0.006449299938)
(0.0157076605 0.007810114285 0.005737657583)
(0.007604260185 0.01474613802 0.004822129336)
(0.01826430254 0.01171954697 0.001488091558)
(0.004503983677 0.02206591028 0.0006434131212)
(-0.0007539985089 0.00735151205 -0.0008735080994)
(-0.02938270708 0.007853832244 -0.005471525533)
(-0.02500909751 -0.0229027164 0.003257423575)
(-0.02726291836 -0.0002859834359 -0.0001801864248)
(-0.01469107784 -0.02454217798 0.008433479262)
(-0.01845179952 -0.0008275422907 0.002288493194)
(-0.006939972233 -0.02041057741 0.005549082934)
(-0.01235135455 0.009877475237 0.005914648472)
(0.0002293650262 -0.01404089555 0.007461365713)
(0.001432827552 0.003790494966 0.006891156059)
(0.01549123851 -0.01228782206 0.007660027049)
(0.009603566497 0.02057015601 0.00498042353)
(0.03070632963 0.008248983799 0.006279749609)
(0.01102839023 0.02734798275 0.003712664318)
(0.0263543969 0.0131749593 0.002740066598)
(-0.002261575453 0.03068032866 0.006282259873)
(0.01489000118 0.0157101375 0.007100562917)
(0.008858653805 0.02369020664 0.006800037334)
(0.0214497232 0.009861477689 0.0005703899818)
(0.003962271174 0.01696568932 -0.002192124407)
(-0.008704558824 0.0005036254833 -0.003432690611)
(-0.03262384136 0.009664625523 -0.003841106399)
(-0.02459755919 -0.02500697486 0.004220872488)
(-0.0250671149 0.003254999279 -0.00113661352)
(-0.01122115033 -0.02299498496 0.005689471102)
(-0.01599591512 0.004913734362 0.0003800160536)
(-0.0007694732248 -0.02123961826 0.003965263258)
(-0.01025327741 0.009546846874 0.003646896529)
(0.001326074821 -0.01401529797 0.008430904587)
(0.0008832720438 0.01294724944 0.006406950474)
(0.02132899498 -0.007919793899 0.00803607171)
(0.01530575745 0.02432363819 0.00244332402)
(0.03050688143 0.004587757711 0.006495238902)
(0.01190038025 0.02436962904 0.003320082734)
(0.02564465158 0.008125500512 0.002637353075)
(0.0002723474675 0.03135400574 0.003719472408)
(0.01076568355 0.02309493487 0.006269623112)
(0.003409997501 0.02905630222 0.006537919458)
(0.01349068338 0.006332025771 0.001106572667)
(-0.001969447966 0.005228379356 -0.002761607882)
(-0.01357824851 -0.007986142818 -0.003628530722)
(-0.04036225972 0.01209528567 -0.003243465424)
(-0.02921426883 -0.02191870396 0.004620317419)
(-0.02547000267 0.01064017129 -0.002844636187)
(-0.01387362741 -0.01715332096 0.002539695315)
(-0.0169510724 0.01164043931 -0.0008442713735)
(-0.003739404501 -0.01996268691 0.003042111007)
(-0.007394269305 0.008415796485 0.003261872793)
(0.002994855459 -0.01200237579 0.006549357349)
(0.005477393314 0.02417023198 0.007325495405)
(0.02369726839 0.003021758264 0.006225072131)
(0.01835012264 0.03120880465 0.00476613662)
(0.03070404133 0.005768762098 0.007022027097)
(0.01359591937 0.0263223035 0.006998349075)
(0.0311651486 0.006807532319 0.002911004421)
(0.008421813871 0.0332472605 0.002137152688)
(0.01319966798 0.02491674021 0.002748502584)
(-0.003007155412 0.03260925902 0.005636537113)
(0.004602318539 0.00265626609 0.002298799897)
(-0.00609682178 -0.0006146502285 0.0002301929866)
(-0.007229180989 -0.01403429055 -0.001901212077)
(-0.03966432583 0.01555717864 -0.002716402802)
(-0.02529702818 -0.01941720891 0.003979897667)
(-0.02130463489 0.01522937173 -0.003440486799)
(-0.01087357395 -0.01885877843 0.0009793665514)
(-0.01766420868 0.0130288299 -0.0003750975533)
(-0.00313556103 -0.02420570663 0.005378478007)
(-0.004831092291 0.006662830564 0.003383801835)
(0.01279058333 -0.01640411229 0.006082477884)
(0.01118479711 0.0266646752 0.00469659268)
(0.02645619698 0.003075256295 0.005717525321)
(0.01716462576 0.03228768144 0.003668180099)
(0.02701594297 0.004624358139 0.008052400929)
(0.01272335509 0.02921723894 0.007900115453)
(0.03038500264 0.00627759804 0.004350222499)
(0.01319485367 0.02778481503 -0.0001560195463)
(0.01022766118 0.01522771915 -0.0004867486834)
(-0.01234969109 0.02633999853 0.003294847261)
(-0.009965895936 0.0013780472 0.004137403124)
(-0.0137558253 0.001018968866 0.004034378563)
(-0.003617044703 -0.01145654603 0.001081887086)
(-0.04314404507 0.01833795364 -0.002953817429)
(-0.02908191884 -0.01452773901 0.003216765656)
(-0.02463927963 0.01749923147 -0.003659708981)
(-0.0158313439 -0.01869780512 0.0004182287291)
(-0.02041076074 0.01593870741 0.0001010922437)
(-0.008322241649 -0.01775880494 0.006298749435)
(-0.002060809809 0.01597466115 0.004580952013)
(0.01746808167 -0.009968644488 0.004222583565)
(0.01895225104 0.02805699266 0.003986516941)
(0.02781019789 0.002721694114 0.003972428663)
(0.01937800731 0.03151525906 0.004968630249)
(0.02847727162 0.007614348978 0.006537104306)
(0.01485103478 0.03609995427 0.008247392372)
(0.03000975818 0.01076216792 0.004565986712)
(0.01483066427 0.02270737956 0.0006615211507)
(0.01218376905 0.001242072334 -0.002282284963)
(-0.01288597233 0.01850913148 0.001991751619)
(-0.01326516291 0.002995471261 0.004308100577)
(-0.01514151999 0.01275573593 0.006613867653)
(-0.0002077245786 -0.004368239269 0.002677653845)
(-0.0369648347 0.02227421552 -0.002217875679)
(-0.02555647681 -0.01580786256 0.002862735364)
(-0.02383003288 0.01808630408 -0.002414740732)
(-0.01238309931 -0.02274963914 0.001609576429)
(-0.01670360354 0.01898419991 0.000635796673)
(-0.003199848219 -0.01274382667 0.007001437647)
(0.0004761458044 0.02838986334 0.004804755401)
(0.02164517424 -0.005848703238 0.005049695344)
(0.01987240092 0.0273820136 0.003542577419)
(0.02905665916 -0.006308093089 0.004955230624)
(0.02054939484 0.02615006518 0.004023514072)
(0.03020882433 0.002451556119 0.004554928604)
(0.01499645633 0.03606692226 0.004761708173)
(0.02081041331 0.008637516407 0.004501500442)
(0.006539171005 0.01544586035 0.002063303012)
(0.007332797975 -0.01183602496 -0.0005295133984)
(-0.01124696551 0.008798256776 0.0008858820754)
(-0.01394807018 0.003115544379 0.003030840762)
(-0.01886696604 0.02178705735 0.00534703255)
(-0.009934202381 0.00253831073 0.00259830325)
(-0.0385527435 0.02345719748 -0.001791874966)
(-0.03161123905 -0.01383894005 0.002702559894)
(-0.02914159761 0.02158479203 -0.001463553386)
(-0.01558296019 -0.01543310868 0.001858460571)
(-0.0130422481 0.02671714618 -0.0001627014678)
(-0.001788144841 -0.0001404928875 0.003928426812)
(0.002605475943 0.04047922971 0.003919391559)
(0.01707709573 0.005769510479 0.004507104708)
(0.0183881376 0.03135719112 0.005016011767)
(0.02710298931 -0.004515638306 0.004905688102)
(0.02550444261 0.02357811581 0.004085873946)
(0.03543408654 -0.0009158445274 0.0007995349897)
(0.01928383714 0.02941701138 0.001209479023)
(0.01532275268 0.003184653102 0.002495778858)
(0.0004475329047 0.01326329817 0.004702419077)
(0.00754094974 -0.01474724444 0.00209518359)
(-0.002388773344 0.004542185865 0.001349034093)
(-0.003918477822 -0.001179565723 0.0002489242417)
(-0.01540331776 0.02133199416 0.001787168307)
(-0.01783360592 0.002208221443 0.0005245506635)
(-0.03003288813 0.02586512355 -0.001128860195)
(-0.02655907214 -0.01506989561 0.002764888716)
(-0.02460303005 0.03031729449 0.000139545801)
(-0.009177431594 -0.008189708611 0.003117959974)
(-0.005637807506 0.03576248468 -0.0002932093152)
(0.006419730267 0.002056137825 0.002303256432)
(0.00446562432 0.04474618202 0.002505674862)
(0.01552073397 0.006359382737 0.005570311625)
(0.01236617462 0.03610061837 0.005718321577)
(0.02371680013 -0.003886369976 0.006250590059)
(0.02301104326 0.02399284386 0.003674257673)
(0.03427542358 -0.01038219968 0.0002654865497)
(0.01796507235 0.01424344499 -0.001568992373)
(0.009304207148 -0.01086507053 0.001249262642)
(-0.006044202337 0.01093468468 0.005110640386)
(0.001175334535 -0.01385880705 0.004418703113)
(-0.001698230132 0.002435419629 0.001969146572)
(-0.001932500261 -0.01010553134 -0.001464180433)
(-0.01629366387 0.009791306263 -0.001651905231)
(-0.02703585862 -0.004292322383 -0.001272056131)
(-0.03076204466 0.02517805239 -0.001354929977)
(-0.02815268868 -0.01085270583 0.001772256291)
(-0.02395513556 0.04025347884 0.0005104559243)
(-0.01211834279 0.00646449111 0.00283376087)
(-0.005585637888 0.04488371649 -0.0005715684096)
(0.004506676365 0.008207525673 -0.0002988836957)
(0.00550383396 0.04498212915 0.0008774780052)
(0.01129925213 0.01040005238 0.003672392801)
(0.0109653486 0.04080482946 0.004801483858)
(0.01871226828 0.004925498714 0.004299660044)
(0.02084904477 0.02808745328 0.003525112102)
(0.02853570344 -0.01132902231 0.0004746913841)
(0.01901035457 0.001625585167 -0.001024029615)
(0.01293742781 -0.021282603 -0.0002649378204)
(-0.001604275197 0.006869805906 0.003686780612)
(0.001537755224 -0.01289461804 0.004283408865)
(0.0001375666892 0.001492819449 0.002485047173)
(0.001379973607 -0.01869086404 -0.002199772173)
(-0.01112913962 -0.002375898318 -0.003317643418)
(-0.02223742955 -0.01176492628 -0.002316650421)
(-0.01962790164 0.0266388456 -0.001408995702)
(-0.01577713502 -0.00816020686 0.001424549125)
(-0.01208702706 0.04873165393 0.001161421261)
(-0.006208933553 0.01235202753 0.003350802757)
(-0.004183672629 0.05350110894 0.0007715031962)
(0.006417584977 0.009256210079 0.00070414168)
(0.005834838844 0.04634439741 0.0006466693555)
(0.01280554232 0.008537029245 0.003351762746)
(0.008309822967 0.04240159743 0.002774674258)
(0.01486183707 0.005855199739 0.0029453119)
(0.01145774895 0.02945192559 0.003182261151)
(0.01558494302 -0.0144599555 0.002978614284)
(0.01098016437 -0.001924171386 0.001431515911)
(0.0129320167 -0.03010301896 0.0003551269795)
(-9.653055846e-05 -0.001046842344 0.001454751912)
(-0.0026123108 -0.01804371608 0.003373028123)
(-0.005910215416 -0.001801589656 0.002553634462)
(-0.004604051962 -0.02481566773 -0.001077386938)
(-0.01119608365 -0.008917720817 -0.002851477089)
(-0.01755808218 -0.0151691541 -0.001886504803)
(-0.01755630367 0.02680476666 -0.001234368674)
(-0.01257013723 -0.003939023983 0.0001535445353)
(-0.009395711382 0.0510511566 0.000464057743)
(-0.009112766131 0.01326315055 0.001784989365)
(-0.007671139109 0.0599412867 0.0006777613443)
(-0.0006026339505 0.01913398348 -9.947991753e-05)
(0.004979331035 0.05134039318 0.0002699676343)
(0.008782205462 0.01350535857 0.0008908960562)
(0.009108697418 0.04156796017 0.0002700882211)
(0.009733395053 0.003484540607 -0.0001136423523)
(0.006525897896 0.02721439689 0.002212168539)
(0.006344497518 -0.01322431547 0.003466641523)
(0.007950329343 0.002807192449 0.003014070341)
(0.01343516218 -0.02725188088 0.000293752678)
(0.006920749441 -0.008733353277 7.738020667e-05)
(0.0009766075245 -0.02591388091 0.001048811937)
(-0.004598160636 -0.00636427553 0.001774304369)
(-0.003549973629 -0.02417642359 7.425661544e-05)
(-0.004066946433 -0.008207039919 -0.000960428432)
(-0.005599574019 -0.01334385834 -0.001065337339)
(-0.003056208999 0.03227756487 -0.0002789743511)
(0.001865581959 -0.001819860834 0.0006003332492)
(0.0003587656555 0.04778935903 -0.0001279904005)
(0.0003948375885 0.01288139052 0.001695127047)
(0.0001064616406 0.0610443338 0.0008090005734)
(0.000475028318 0.02464170391 0.0004995072658)
(0.001666823444 0.06148046016 0.0009092920319)
(0.006078777815 0.01406207017 0.0009604365732)
(0.0009501305121 0.04017597431 -0.0003440216009)
(0.004743861459 -0.001902178995 0.0005409547271)
(-0.0004377516199 0.01942128324 0.0006669790612)
(-0.001648638454 -0.01123874742 0.002231904243)
(0.00112888411 0.01290970195 0.00242109767)
(0.004986901184 -0.02403395586 0.0001251059966)
(0.0009331891519 -0.01241604788 -0.0006183782612)
(-0.001021120647 -0.03502732354 0.0007194078459)
(-0.004699146699 -0.01242854621 0.0003391709676)
(-0.00613732691 -0.02219880909 0.0002175510916)
(-0.003581824931 0.0003683707215 0.0004289230046)
(-0.002825199861 -0.01189551177 -0.0004536465565)
(-0.01255669655 0.003249975583 -0.007373809704)
(0.006040598606 0.003116600625 -0.00107582478)
(-0.0008513576256 -0.001239625254 0.008461653513)
(-0.001702517616 -0.005677374725 0.02317526828)
(-0.02326142244 0.001406154384 0.02110008366)
(0.001102376237 -9.969575574e-05 0.03021575191)
(-0.01241302602 0.002357746829 0.02397565659)
(0.003118567142 -0.0008878056222 0.02644141745)
(-0.01371535521 5.689847463e-05 0.02049925617)
(0.003004684554 -0.004739811978 0.0249650983)
(-0.01851250539 -0.002861968709 0.02517151742)
(-0.001135232705 -8.241585351e-05 0.03358224631)
(-0.01586193051 0.005968871065 0.02591730587)
(0.01483008101 0.002832368554 0.01764861708)
(-0.0002247865985 0.001587296481 0.0158734135)
(0.01499747057 -0.00180811354 0.01924440275)
(-0.0002076096932 0.001029921086 0.02472187944)
(0.0156188299 0.0006007338234 0.01367245736)
(0.0159045342 0.002559662364 0.008330095111)
(0.02514394042 -0.0001056921486 -0.003564330463)
(-0.007951016823 0.006131493801 -0.004446963004)
(0.002930370327 0.006998361894 0.004468330693)
(-0.007040523399 -0.006195222701 0.004999850908)
(0.0001423386526 -0.0149045282 0.01743795853)
(-0.01934047078 -0.003770412286 0.01859418042)
(0.001778596712 -0.003192525546 0.02770059658)
(-0.01299768918 -0.002981799288 0.02346898632)
(0.00155212424 -0.005486468513 0.02859710142)
(-0.01645708862 -0.008899943523 0.0257797857)
(0.001003352102 -0.01270526418 0.02879262684)
(-0.01526546304 -0.01554309576 0.02390044654)
(0.005065224831 -0.001793749756 0.02980316947)
(-0.01383817577 0.005323881726 0.0259154846)
(0.01169401168 0.006434128406 0.02206533557)
(-0.003487894181 -0.001383486191 0.01990204116)
(0.01456823035 -0.003010795981 0.01825241462)
(0.001496948327 -0.0006531907531 0.0215622956)
(0.01671121487 0.003368622243 0.0115700246)
(0.01543746038 0.004173244892 0.008192897758)
(0.0232962542 0.001812554845 -0.003058704791)
(-0.002903877037 0.008879721821 5.708786756e-05)
(-0.002575338021 0.003403121696 0.01260271561)
(-0.01624501366 -0.003826197837 0.003541577612)
(-6.040602519e-05 -0.01825482499 0.01216675233)
(-0.0149819273 -0.003165215866 0.01446401147)
(0.001646832382 -0.007256295038 0.02411467256)
(-0.01404506225 -0.002985285176 0.020845309)
(-0.00101005259 -0.01025147342 0.03132574799)
(-0.01886409774 -0.006037302285 0.02863059375)
(-0.001590165792 -0.01226458493 0.03318766628)
(-0.01091665854 -0.0115861107 0.01753411052)
(0.01360420585 -0.003642855156 0.02561229659)
(-0.0101251311 0.007710829207 0.02272790759)
(0.01005981849 0.006541028935 0.02709069277)
(-0.006905920401 0.004758018357 0.02253884712)
(0.01547536261 -0.000901754452 0.01602679571)
(0.004337100144 0.005381274066 0.01656392611)
(0.01900989146 0.005532221152 0.009461139234)
(0.01491949794 0.008956449578 0.009335057528)
(0.02054778991 0.001357869665 -0.001084884652)
(0.00102954942 0.005362482034 0.003342391068)
(-0.005908817754 -0.006443348383 0.01845772924)
(-0.0220628588 -0.005364257236 0.004904035097)
(0.0004576968967 -0.0180487386 0.01052836032)
(-0.01144096141 -0.00766252063 0.01229768506)
(0.001852493121 -0.01379462442 0.0218232261)
(-0.01515448767 -0.01227824575 0.02066748132)
(-0.0004980258989 -0.01845672093 0.03120217497)
(-0.01800174716 -0.01070987878 0.03095858693)
(-0.002769776659 -0.008998529475 0.03325600918)
(-0.009294297798 -0.01274859187 0.0162351597)
(0.01870180857 -0.006277274778 0.02126181689)
(-0.006674342313 -0.001478778727 0.02180307245)
(0.009582782751 0.004402272243 0.02910011245)
(-0.008729880532 0.005595671783 0.02443031705)
(0.01501029838 0.003394209683 0.01245376065)
(0.006047200868 0.007098400148 0.01209415078)
(0.01923860623 0.007838906566 0.008258912095)
(0.01265436067 0.009360692698 0.01245045979)
(0.01552077793 0.002232190788 0.002062297212)
(-0.003470143476 0.002107904132 0.002823948825)
(-0.01009975968 -0.01846636211 0.0163388862)
(-0.02418600386 -0.002686679293 0.006758293172)
(-0.00184601417 -0.01499687682 0.01246522741)
(-0.01181170738 -0.005343101606 0.01033665802)
(-0.001666408801 -0.01839474209 0.02232226973)
(-0.01735418364 -0.01302190808 0.01881678067)
(0.0002156493399 -0.0239227491 0.0302610892)
(-0.01230273883 -0.008133439152 0.02190428235)
(-0.002873501282 -0.005153549795 0.03252354639)
(-0.009135699428 -0.00420172017 0.007410953266)
(0.02160614002 -0.00655725546 0.02265091366)
(-0.002641168429 -0.001874122791 0.0152156935)
(0.01505248311 0.002671054055 0.02826992331)
(-0.007613962367 0.01311595552 0.02163352049)
(0.01655725325 0.00737432289 0.01000034844)
(0.007493100306 0.01290449687 0.008398576245)
(0.0206089911 0.007866789864 0.007988087754)
(0.0111825122 0.0116473812 0.0148030057)
(0.01179358542 0.0005341409851 0.004913308091)
(-0.01057603571 -0.0008981118581 -0.001659008305)
(-0.009253091987 -0.02508202132 0.00821173919)
(-0.0194354063 -0.002886173605 0.007780496432)
(-0.001637287376 -0.01467112433 0.01634938991)
(-0.01363095632 -0.007902812553 0.01177765697)
(-0.003632953503 -0.02477407946 0.02423866215)
(-0.01908586851 -0.01565210036 0.02216045013)
(0.003093874106 -0.02751886866 0.02641723341)
(-0.004889118257 -0.01302631235 0.01756159165)
(0.0001818436477 -0.00824294193 0.02707672676)
(-0.01040756938 -0.00286199067 0.01119567173)
(0.02035935481 -0.004703501283 0.02465458495)
(-0.0001970153152 -0.002413962206 0.01564014193)
(0.02012238096 0.002695734215 0.02346876823)
(-0.005386679242 0.01493174346 0.02059252496)
(0.01484163814 0.01096950135 0.009715072677)
(0.006410928969 0.01394883952 0.008925300726)
(0.01835371366 0.007913532587 0.007589953341)
(0.007683070044 0.009945805745 0.01473883414)
(0.00632799679 0.0004835551642 0.005095146967)
(-0.02201334777 0.002538257204 -0.006175558016)
(-0.01149024149 -0.02405823132 0.001180014081)
(-0.01659797426 -0.0001567825748 0.007122637865)
(-0.005649745219 -0.01739293176 0.02014526306)
(-0.01872624632 -0.006686416232 0.01243985668)
(-0.007189384824 -0.02786617386 0.02625611849)
(-0.01933686188 -0.007815046892 0.02081323739)
(0.002247329001 -0.023155448 0.0259622006)
(0.001172587918 -0.009831521857 0.005653286652)
(0.004494662959 -0.01368429695 0.02563856004)
(-0.006754025893 -0.0005368347731 -0.002610632251)
(0.02189819328 -0.0008524829725 0.02772569164)
(0.002544032313 0.008258132589 0.006550689407)
(0.02721945973 0.005385204655 0.01902273136)
(-0.001754166745 0.02113271201 0.01600717353)
(0.01582224453 0.01370354681 0.01274629716)
(0.005339872115 0.01927979758 0.01060809659)
(0.01778253549 0.007326972508 0.006301494354)
(0.006113473991 0.0109325478 0.01009981101)
(0.003869624953 -0.001747612388 0.001865127667)
(-0.02605705972 0.007325101264 -0.007331470413)
(-0.01102103025 -0.0208462512 0.0002550644097)
(-0.01441095458 -0.002942588955 0.007223132693)
(-0.006533491264 -0.0266678599 0.02136808227)
(-0.02074690604 -0.01054726163 0.01422981721)
(-0.004483297785 -0.03220724709 0.02445613403)
(-0.01586164838 -0.003107702888 0.02244123966)
(0.001888878932 -0.01857446409 0.02387873392)
(0.001629288467 -0.004440504193 0.009716363093)
(0.006975277146 -0.01751824704 0.01974920766)
(-0.001441652455 0.007597067081 6.792308945e-05)
(0.02644354415 0.00293323573 0.02358501579)
(0.004234032373 0.01796658171 0.007609069299)
(0.02909698853 0.007987179807 0.01364335159)
(0.0005368960682 0.02189863515 0.01632004229)
(0.01348149955 0.01552978645 0.01675695092)
(0.001888985101 0.02154207839 0.015142778)
(0.01247062252 0.008175753391 0.004358949974)
(0.001418916612 0.009367590214 0.003477359713)
(-0.0006678904079 -0.002587703212 -0.003815934437)
(-0.03178863459 0.01156131244 -0.004666520518)
(-0.01843319542 -0.01904887764 0.004990107738)
(-0.02039778727 -0.003736265827 0.005698217063)
(-0.0113252838 -0.03196809659 0.01902541368)
(-0.02233770188 -0.006939618217 0.01095378082)
(-0.001990672918 -0.02894242457 0.02014313355)
(-0.009821212591 0.004750071267 0.01561579667)
(0.001569276885 -0.01235378094 0.02553194586)
(0.001703955478 0.008830766601 0.009638472456)
(0.01310678612 -0.01386606759 0.02499485866)
(0.007645011631 0.02177443901 -0.006140822881)
(0.02915106976 0.006876405774 0.02324633801)
(0.006174508813 0.02937760685 0.002881294727)
(0.02987147317 0.01019397142 0.01263687581)
(0.003634509815 0.0255214161 0.01200689286)
(0.01555097035 0.01667256586 0.0185724434)
(0.0001114397006 0.02699360009 0.0161513518)
(0.009201747311 0.009098594086 0.003149768462)
(-0.001368027782 0.01054191515 -0.00219178297)
(-0.001378860566 -0.004712321093 -0.007827306954)
(-0.03159817217 0.01398811543 -0.001705224658)
(-0.0214058317 -0.02249025059 0.009767783766)
(-0.02315890933 -0.001761228601 0.004377252909)
(-0.009143958031 -0.03423642324 0.01348004398)
(-0.01830007766 -0.00104027053 0.008278050095)
(0.003666307675 -0.02607662591 0.0148296055)
(-0.00428177 0.004446228846 0.0129828385)
(0.005046639723 -0.01577286716 0.02300085652)
(0.0003549503717 0.01376701709 0.02001658099)
(0.01612384333 -0.01071325034 0.02384682264)
(0.01317639997 0.02400949077 0.006535420782)
(0.03181694577 0.00590426699 0.01978698293)
(0.006647646098 0.03059249332 0.01152802886)
(0.02624599885 0.008355605709 0.01229603906)
(0.005187438844 0.02350579406 0.01124823023)
(0.01450995837 0.01473629873 0.01499335147)
(-0.003520368697 0.02682576777 0.01593574183)
(0.000858381385 0.009527980882 0.003630957541)
(-0.008264471729 0.009851622002 -0.001632425418)
(-0.00520674417 -0.00507211506 -0.007917189043)
(-0.03805003325 0.01431380065 -0.0002542385117)
(-0.02905021681 -0.02248395185 0.01003162924)
(-0.02831093606 0.00631488393 0.0009422386802)
(-0.01115976585 -0.02611796383 0.006944464087)
(-0.01630464251 0.0102250324 0.003673639465)
(0.001795908447 -0.01736301721 0.01324805755)
(-0.002688795709 0.007883474133 0.008057809513)
(0.00848584697 -0.01649242135 0.0212458741)
(0.00503867173 0.02090650359 0.0156927365)
(0.02037627478 -0.001436002236 0.02450926955)
(0.01937347786 0.03362604013 0.0029636974)
(0.03379456265 0.00863714992 0.02177163689)
(0.00799965343 0.03503224667 0.01248858801)
(0.02470834914 0.009947123315 0.01467027193)
(0.008214669617 0.02588627997 0.005554156109)
(0.01787758945 0.01196728142 0.007947047585)
(-0.003627172391 0.02638705699 0.0111588209)
(-0.00277206044 0.008344914019 0.006035262249)
(-0.01165918293 0.01225003515 0.003583300608)
(-0.005151115245 -0.005105894666 -0.003331789774)
(-0.03761032434 0.01619797712 -0.001472795911)
(-0.0265849951 -0.02218648692 0.007621452874)
(-0.02536264887 0.01373833648 -0.001353131289)