/*--------------------------------*- C++ -*----------------------------------*\
| =========                 |                                                 |
| \\      /  F ield         | OpenFOAM: The Open Source CFD Toolbox           |
|  \\    /   O peration     | Version:  5.x                                   |
|   \\  /    A nd           | Web:      www.OpenFOAM.org                      |
|    \\/     M anipulation  |                                                 |
\*---------------------------------------------------------------------------*/
FoamFile
{
    version     2.0;
    format      ascii;
    class       volScalarField;
    location    "3.2";
    object      p;
}
// * * * * * * * * * * * * * * * * * * * * * * * * * * * * * * * * * * * * * //

dimensions      [1 -1 -2 0 0 0 0];

internalField   nonuniform List<scalar> 
30538
(
101292.3479
101276.1715
101262.2491
101250.6536
101246.1144
101246.6137
101254.9151
101269.2914
101290.9502
101313.59
101335.1447
101351.0415
101362.4273
101370.528
101376.0282
101375.0283
101365.9001
101349.9961
101330.2399
101309.2014
101292.5054
101276.7967
101263.1607
101252.2807
101248.1322
101248.8059
101256.903
101270.7518
101291.6423
101313.496
101334.2855
101349.6152
101360.6091
101368.4692
101373.8434
101372.978
101364.1897
101348.7705
101329.5562
101309.0428
101292.7788
101278.0277
101265.0042
101255.3915
101251.994
101252.9969
101260.7407
101273.5997
101293.0173
101313.3645
101332.6718
101346.9107
101357.1479
101364.5263
101369.6917
101369.094
101360.9736
101346.4943
101328.3156
101308.7543
101293.1234
101279.7499
101267.8782
101259.7843
101257.3867
101258.8676
101266.0945
101277.7516
101295.0725
101313.3134
101330.5085
101343.215
101352.3539
101359.0895
101363.9852
101363.8079
101356.6417
101343.4928
101326.7103
101308.3841
101293.5967
101281.8647
101271.759
101265.3346
101264.0582
101266.0392
101272.7328
101283.0305
101297.8785
101313.5005
101328.1376
101338.9137
101346.7365
101352.6873
101357.3559
101357.6725
101351.6898
101340.0955
101324.9167
101307.978
101294.283
101284.4707
101276.4412
101271.8366
101271.6512
101274.1253
101280.1974
101289.1839
101301.3454
101314.0731
101325.8444
101334.4645
101340.7797
101345.9562
101350.3435
101351.228
101346.465
101336.5455
101323.0234
101307.5512
101295.1774
101287.5865
101281.7565
101278.9341
101279.811
101282.7133
101288.2315
101295.8024
101305.4574
101315.1133
101323.9047
101330.219
101335.0712
101339.4231
101343.6131
101344.9907
101341.4416
101333.0703
101321.145
101307.0809
101296.2684
101290.9962
101287.3266
101286.1624
101287.9582
101291.2901
101296.2485
101302.5168
101309.7131
101316.5451
101322.3585
101326.425
101329.856
101333.5429
101337.5499
101339.3987
101336.8248
101329.7941
101319.2863
101306.5713
101297.4661
101294.4407
101292.7193
101292.9989
101295.5993
101299.3058
101303.9242
101308.9404
101314.0795
101318.2017
101321.2784
101323.2515
101325.4866
101328.593
101332.5653
101334.7123
101332.8469
101326.7959
101317.4757
101306.0091
101298.6688
101297.648
101297.5623
101299.0312
101302.2336
101306.2669
101310.5959
101314.6505
101317.9428
101319.8376
101320.5195
101320.7331
101322.0422
101324.7834
101328.8382
101331.1229
101329.6153
101324.1622
101315.7532
101305.4046
101299.79
101300.4191
101301.7336
101303.9653
101307.6511
101311.8399
101316.0713
101319.3104
101321.2085
101321.2048
101319.9979
101318.8421
101319.4883
101322.055
101326.269
101328.5345
101327.0663
101321.9014
101314.1576
101304.7825
101300.7538
101302.675
101304.9247
101307.693
101311.5508
101315.8602
101319.9074
101322.564
101323.3589
101321.9779
101319.3457
101317.2558
101317.5096
101320.1167
101324.5303
101326.7025
101325.0275
101319.9352
101312.6716
101304.155
101301.5403
101304.4074
101307.2155
101310.3363
101314.1934
101318.3823
101322.1243
101324.202
101324.2099
101321.8508
101318.329
101315.607
101315.6994
101318.4796
101323.1408
101325.2106
101323.2225
101318.1009
101311.2311
101303.5162
101302.1057
101305.6451
101308.8082
101311.951
101315.5398
101319.3443
101322.5888
101324.1675
101323.6225
101320.715
101316.6745
101313.6448
101313.7292
101316.757
101321.6569
101323.6614
101321.3639
101316.234
101309.7369
101302.851
101302.4273
101306.3137
101309.5712
101312.4458
101315.5301
101318.724
101321.4191
101322.6021
101321.795
101318.7093
101314.5195
101311.4751
101311.69
101314.9074
101319.91
101321.8278
101319.2928
101314.2532
101308.1729
101302.1709
101302.4954
101306.3185
101309.3953
101311.7906
101314.2202
101316.7479
101318.8605
101319.7658
101318.9148
101316.0039
101312.1017
101309.2842
101309.5893
101312.8532
101317.7211
101319.549
101316.9147
101312.1596
101306.5844
101301.5365
101302.2876
101305.678
101308.2748
101310.1021
101311.8946
101313.763
101315.3415
101316.0299
101315.3308
101312.8654
101309.5472
101307.1689
101307.6162
101310.6457
101315.0639
101316.6735
101314.1789
101309.9347
101305.0852
101301.0348
101301.8566
101304.4838
101306.4258
101307.6421
101308.8261
101310.0577
101311.1751
101311.6438
101311.1445
101309.3024
101306.8229
101305.0937
101305.5887
101308.13
101311.721
101313.0008
101310.9451
101307.522
101303.7035
101300.6596
101301.2329
101302.8668
101304.0726
101304.7505
101305.4154
101306.0974
101306.7675
101307.0375
101306.7452
101305.5976
101304.0997
101303.0458
101303.4721
101305.1724
101307.5316
101308.4316
101307.1011
101304.883
101302.3552
101300.3892
101300.4434
101301.0739
101301.4086
101301.6934
101301.8455
101302.0464
101302.2488
101302.3389
101302.2497
101301.8896
101301.3755
101301.0883
101301.2555
101301.9063
101302.7488
101303.106
101302.6318
101301.8205
101300.8785
101300.1433
101292.2452
101276.4749
101262.6726
101252.2853
101248.8588
101250.8388
101259.9356
101273.9793
101292.9092
101311.1369
101327.8765
101341.358
101353.0515
101362.6583
101368.946
101367.9891
101359.1407
101344.8755
101328.2192
101309.2404
101292.4722
101277.3255
101263.9635
101254.2585
101251.2083
101253.2547
101262.0559
101275.5329
101293.6158
101311.0648
101327.0157
101339.8125
101350.9454
101360.1793
101366.3204
101365.551
101357.1077
101343.3945
101327.3307
101308.966
101292.8978
101278.9284
101266.5577
101258.0166
101255.6533
101257.8453
101266.1316
101278.5741
101295.0528
101310.9843
101325.4186
101336.926
101347.0187
101355.5326
101361.4419
101361.0552
101353.414
101340.7399
101325.7498
101308.4817
101293.5129
101281.1469
101270.3671
101263.2817
101261.7842
101264.2232
101271.8263
101282.968
101297.21
101310.9831
101323.2829
101333.0519
101341.7347
101349.2977
101354.9468
101355.1429
101348.6462
101337.3681
101323.7431
101307.873
101294.3223
101283.9735
101275.1323
101269.692
101269.1758
101271.9282
101278.8271
101288.4474
101300.1253
101311.1905
101320.9379
101328.6234
101335.7099
101342.1914
101347.6099
101348.4895
101343.3801
101333.6722
101321.5374
101307.2018
101295.3106
101287.3018
101280.6203
101276.8697
101277.3262
101280.443
101286.6385
101294.658
101303.6021
101311.7213
101318.6321
101324.0932
101329.4819
101334.9325
101340.0786
101341.6925
101337.995
101329.8966
101319.253
101306.4997
101296.4643
101290.934
101286.4797
101284.3854
101285.7567
101289.2505
101294.8443
101301.2122
101307.5533
101312.6289
101316.6776
101319.8563
101323.6381
101328.0904
101332.995
101335.2373
101332.8522
101326.2191
101317.0034
101305.7853
101297.6719
101294.5632
101292.2382
101291.7312
101293.9009
101297.7698
101302.8155
101307.6936
101311.5435
101313.8469
101315.1207
101316.191
101318.4753
101322.1204
101326.7833
101329.5176
101328.1718
101322.7835
101314.8665
101305.0998
101298.8019
101297.8532
101297.4321
101298.4104
101301.338
101305.512
101310.1704
101313.7119
101315.4903
101315.2879
101314.1314
101313.3593
101314.43
101317.4048
101321.8922
101324.8441
101324.167
101319.721
101312.9332
101304.4758
101299.7644
101300.5051
101301.7324
101303.9589
101307.5777
101312.0264
101316.345
101318.8558
101318.9271
101316.76
101313.6483
101311.4676
101311.6737
101314.216
101318.5982
101321.5114
101321.1163
101317.2631
101311.3697
101303.9534
101300.5217
101302.41
101304.8769
101308.0331
101312.2677
101316.9668
101321.1086
101322.882
101321.7985
101318.1211
101313.6153
101310.4735
101310.2158
101312.5704
101316.9049
101319.5607
101319.0939
101315.5229
101310.2552
101303.5788
101301.049
101303.6363
101306.8284
101310.718
101315.3737
101320.2962
101324.2813
101325.5765
101323.707
101319.0761
101313.6953
101310.0697
101309.7043
101312.1476
101316.4758
101318.7506
101317.9252
101314.3885
101309.5394
101303.3396
101301.3637
101304.3338
101307.9906
101312.2465
101317.1831
101322.0488
101325.8619
101326.7865
101324.4605
101319.3236
101313.6075
101309.835
101309.612
101312.3104
101316.6787
101318.5308
101317.1816
101313.5654
101309.0382
101303.1658
101301.5024
101304.6316
101308.4353
101312.7515
101317.5566
101322.1767
101325.6886
101326.4112
101323.9374
101318.726
101313.0181
101309.3971
101309.4722
101312.501
101316.8751
101318.3492
101316.4167
101312.722
101308.518
101302.9656
101301.4695
101304.472
101308.1188
101312.1693
101316.6064
101320.777
101323.9075
101324.566
101322.2709
101317.3546
101312.006
101308.7395
101309.1867
101312.4731
101316.749
101317.862
101315.3406
101311.6363
101307.7865
101302.6702
101301.2887
101303.9033
101307.1365
101310.672
101314.5468
101318.1442
101320.8627
101321.5006
101319.5474
101315.2491
101310.5835
101307.8063
101308.5816
101311.985
101315.9975
101316.7811
101313.8256
101310.2314
101306.7789
101302.2637
101301.0012
101303.0844
101305.7201
101308.584
101311.7543
101314.694
101316.9475
101317.5586
101316.059
101312.5683
101308.7808
101306.6405
101307.6635
101310.8737
101314.378
101314.8661
101311.8308
101308.502
101305.5267
101301.8142
101300.7008
101302.148
101304.0441
101306.1237
101308.476
101310.6408
101312.3785
101312.8856
101311.8485
101309.3003
101306.5031
101305.0607
101306.1363
101308.8313
101311.6197
101311.8553
101309.2419
101306.4524
101304.101
101301.325
101300.4331
101301.234
101302.3946
101303.6276
101305.0891
101306.4386
101307.5449
101307.8884
101307.2706
101305.6949
101304.0282
101303.1372
101303.889
101305.6702
101307.473
101307.7123
101305.9822
101304.154
101302.5635
101300.8213
101300.1582
101300.4563
101300.7649
101301.2482
101301.6895
101302.1806
101302.5496
101302.6897
101302.4857
101301.9794
101301.4006
101301.1579
101301.432
101302.0855
101302.6874
101302.8271
101302.2136
101301.5257
101300.925
101300.2804
101292.6363
101278.0481
101265.1156
101256.3192
101254.261
101258.1193
101268.1458
101281.0821
101294.8579
101305.7978
101315.5014
101325.6687
101337.5951
101348.7734
101355.1666
101353.9951
101345.7615
101334.6717
101323.3829
101308.7377
101292.9834
101279.1569
101267.0267
101258.8404
101257.0802
101260.8264
101270.4209
101282.7522
101295.641
101305.8625
101314.7611
101324.0998
101335.2194
101345.7891
101352.0755
101351.2287
101343.4888
101333.0182
101322.3134
101308.3982
101293.6474
101281.3284
101270.6656
101263.6049
101262.396
101265.9738
101274.8252
101285.9997
101297.3111
101306.0549
101313.3956
101321.1897
101330.8737
101340.3553
101346.4838
101346.2359
101339.4923
101330.1158
101320.4444
101307.7667
101294.6079
101284.4254
101275.6746
101270.0927
101269.6114
101273.1145
101280.994
101290.6475
101299.7813
101306.4097
101311.5638
101317.3507
101325.1621
101333.3369
101339.2654
101339.8607
101334.5144
101326.5216
101318.0633
101306.9202
101295.8211
101288.2022
101281.6382
101277.676
101278.0596
101281.6442
101288.6191
101296.3152
101303.0235
101306.9621
101309.5691
101313.0361
101318.8455
101325.6189
101331.4261
101332.9013
101329.2118
101322.6279
101315.4278
101305.9006
101297.2139
101292.3412
101288.0459
101285.7311
101287.0047
101290.8823
101296.952
101302.6691
101306.5612
101307.6803
101307.5826
101308.7078
101312.473
101317.9841
101323.5374
101325.9522
101323.8093
101318.6201
101312.6094
101304.8084
101298.6458
101296.487
101294.3859
101293.6622
101295.8723
101300.0835
101305.5088
101309.1734
101310.4109
101308.5749
101305.8785
101304.7195
101306.6784
101310.9429
101316.3099
101319.3657
101318.6109
101314.6247
101309.7976
101303.6941
101299.9629
101300.2032
101300.1014
101300.976
101304.0036
101308.6237
101313.3928
101315.3664
101313.9543
101309.5521
101304.4741
101301.4063
101301.7197
101304.9955
101309.9728
101313.5132
101313.73
101310.8699
101307.1253
101302.6751
101301.0014
101303.1153
101304.8713
101307.2123
101311.1198
101315.9924
101320.3501
101320.7747
101317.3315
101310.6648
101303.6832
101299.0296
101298.1821
101300.5878
101305.1492
101308.7397
101309.5752
101307.6411
101304.8969
101301.8595
101301.6694
101304.973
101308.2297
101311.848
101316.5762
101321.658
101325.6239
101325.024
101320.0204
101311.8501
101303.5301
101297.8891
101296.2573
101298.0987
101302.2237
101305.5937
101306.6725
101305.4104
101303.4753
101301.3921
101301.9264
101305.8168
101309.962
101314.7257
101320.117
101325.4529
101329.1411
101327.9603
101322.0856
101313.0395
101304.069
101297.9275
101296.0695
101297.6566
101301.3926
101304.3051
101305.2919
101304.4047
101302.9868
101301.3216
101301.8758
101305.8042
101310.5119
101316.0648
101322.0376
101327.567
101331.0673
101329.5794
101323.3776
101314.0383
101304.9412
101298.8844
101297.2251
101298.9591
101302.3522
101304.681
101305.2563
101304.4837
101303.3058
101301.5854
101301.6176
101305.3231
101310.2844
101316.2311
101322.4877
101327.997
101331.4316
101329.916
101323.8178
101314.6094
101305.8766
101300.2905
101299.2255
101301.2865
101304.33
101305.9794
101305.9306
101305.1186
101304.0823
101302.0373
101301.2373
101304.469
101309.3335
101315.2165
101321.427
101326.7816
101330.1482
101328.8962
101323.2222
101314.577
101306.4787
101301.7034
101301.3982
101303.8417
101306.4882
101307.4372
101306.6593
101305.7473
101304.873
101302.4913
101300.7404
101303.2799
101307.7249
101313.2197
101319.0784
101324.1257
101327.3937
101326.5779
101321.7088
101313.9475
101306.8124
101302.9595
101303.4564
101306.1716
101308.3914
101308.6386
101307.1014
101306.0202
101305.3657
101302.7887
101300.2017
101301.967
101305.7343
101310.603
101315.8717
101320.4475
101323.5559
101323.1983
101319.2027
101312.6455
101306.6872
101303.8333
101305.0289
101307.9087
101309.6441
101309.2195
101307.021
101305.7783
101305.3592
101302.8087
101299.7681
101300.8201
101303.7976
101307.86
101312.3151
101316.2441
101319.0375
101319.0218
101315.9684
101310.7297
101306.131
101304.2503
101305.8727
101308.6168
101309.8325
101308.9029
101306.3428
101305.0202
101304.8265
101302.4988
101299.5779
101300.0279
101302.0926
101305.1655
101308.5906
101311.6226
101313.914
101314.0544
101311.8771
101308.0984
101304.801
101303.8254
101305.511
101307.8392
101308.5538
101307.4893
101305.0413
101303.8433
101303.7634
101301.9382
101299.6589
101299.7569
101301.0101
101302.8491
101305.0577
101306.9754
101308.5245
101308.6747
101307.3729
101305.0048
101303.0673
101302.4191
101303.5951
101305.0723
101305.5793
101304.7861
101303.1497
101302.3514
101302.3078
101301.1984
101299.9002
101299.8874
101300.2049
101300.9278
101301.5994
101302.4036
101302.8959
101303.0412
101302.5505
101301.781
101301.0694
101300.8856
101301.3945
101301.8713
101301.9983
101301.7213
101301.1371
101300.8219
101300.7879
101300.3981
101293.8843
101281.6789
101270.9604
101263.6445
101262.829
101267.6385
101277.1422
101287.2245
101293.8882
101297.3972
101301.7605
101309.3228
101320.6951
101331.688
101335.9997
101334.2547
101327.8499
101320.313
101314.4994
101306.3348
101294.3436
101283.1468
101273.3203
101266.6211
101265.9621
101270.51
101279.5011
101288.9241
101295.0682
101297.9398
101301.5359
101308.1691
101318.4707
101328.6418
101332.9644
101331.6737
101325.853
101319.0025
101313.628
101306.1039
101295.2258
101285.9205
101277.7494
101272.1949
101271.8575
101276.0036
101284.1555
101292.3227
101297.3657
101298.9192
101301.0407
101305.9327
101314.4396
101323.2235
101327.5649
101327.1162
101322.3626
101316.6395
101312.0556
101305.6672
101296.4664
101289.7188
101283.7013
101279.678
101279.8484
101283.6399
101290.7667
101297.2829
101300.5336
101300.2374
101300.1999
101302.8682
101309.2043
101316.4277
101320.7724
101321.409
101318.0044
101313.5665
101309.9614
101304.9954
101297.9661
101294.1204
101290.4937
101288.2218
101289.1239
101292.7568
101298.8355
101303.3724
101304.5052
101301.8266
101299.3139
101299.3789
101303.4512
101309.0802
101313.4975
101315.1646
101313.2157
101310.0288
101307.4377
101304.0484
101299.5894
101298.5968
101297.3829
101296.9641
101298.8112
101302.5337
101307.5434
101310.0261
101308.528
101303.4439
101298.2681
101295.8875
101297.7027
101301.8811
101306.2066
101308.721
101308.1591
101306.1438
101304.58
101302.8582
101301.1486
101302.6913
101303.7275
101305.1616
101308.1078
101312.1387
101316.221
101316.5903
101312.6359
101304.9285
101297.4905
101292.7306
101292.4937
101295.2531
101299.3804
101302.3795
101303.0464
101302.058
101301.5828
101301.5247
101302.4473
101306.0239
101309.0539
101312.2996
101316.3219
101320.7801
101323.9663
101322.4211
101315.9361
101306.0668
101296.5576
101290.013
101288.0494
101289.618
101293.2717
101296.517
101298.0935
101298.0499
101298.7033
101300.2414
101303.3344
101308.2961
101313.0433
101317.8317
101322.9531
101327.7577
101330.3215
101327.0759
101318.6626
101306.9358
101295.9771
101288.1071
101284.9729
101285.4673
101288.5006
101291.6351
101293.834
101294.684
101296.3299
101299.2294
101303.7206
101309.4015
101315.2271
101321.3553
101327.3458
101332.4621
101334.5177
101330.1576
101320.4248
101307.6176
101295.75
101287.2625
101283.4486
101283.1986
101285.5854
101288.4805
101291.0541
101292.6103
101294.9733
101298.6867
101303.6263
101309.419
101315.9248
101322.951
101329.6323
101334.9639
101336.7063
101331.7552
101321.4422
101308.1656
101296.126
101287.6
101283.692
101283.0964
101284.9245
101287.4769
101290.1491
101292.1199
101294.7936
101298.6311
101303.1959
101308.7645
101315.5298
101323.0416
101330.1456
101335.5654
101337.1955
101332.0341
101321.6055
101308.506
101296.8604
101288.8644
101285.3458
101284.8528
101286.1916
101288.3219
101290.8465
101292.9837
101295.6112
101299.0207
101302.6099
101307.7268
101314.343
101321.8719
101329.0376
101334.453
101336.1367
101331.1527
101321.0866
101308.5194
101297.7259
101290.6426
101287.9568
101287.8716
101288.7013
101290.2599
101292.4515
101294.6079
101297.0185
101299.7061
101301.9286
101306.2816
101312.3791
101319.5301
101326.4169
101331.7026
101333.5903
101329.1704
101319.8865
101308.1754
101298.4391
101292.607
101291.0411
101291.4814
101291.7274
101292.5634
101294.3293
101296.3716
101298.523
101300.4963
101301.16
101304.5355
101309.847
101316.2439
101322.596
101327.6045
101329.7993
101326.2246
101318.1074
101307.5875
101299.1629
101294.7635
101294.4787
101295.3501
101294.9516
101294.9364
101296.1338
101297.892
101299.8119
101301.2223
101300.3895
101302.741
101307.0791
101312.5306
101318.1907
101322.7873
101325.1711
101322.5138
101315.7173
101306.7484
101299.8436
101296.9809
101297.8279
101298.93
101297.8198
101296.8944
101297.5032
101298.8953
101300.6945
101301.6935
101299.7955
101301.2554
101304.5603
101309.0053
101313.794
101317.8041
101320.1327
101318.2786
101312.9182
101305.7335
101300.581
101299.0576
101300.5587
101301.6111
101299.8776
101298.2954
101298.3725
101299.4539
101301.1062
101301.7442
101299.5579
101300.2354
101302.4516
101305.7678
101309.4892
101312.6354
101314.6555
101313.4128
101309.501
101304.3052
101300.8209
101300.3073
101301.9667
101302.8906
101300.9499
101299.1365
101298.8191
101299.6224
101301.0396
101301.4539
101299.6558
101299.8881
101301.1953
101303.0916
101305.5173
101307.4779
101308.8994
101308.1882
101305.8289
101302.6065
101300.5653
101300.3262
101301.5974
101302.1241
101300.726
101299.2428
101298.9671
101299.5984
101300.6023
101300.9367
101299.9297
101299.9402
101300.213
101301.033
101301.6981
101302.6954
101303.124
101302.981
101302.06
101300.97
101300.2637
101300.226
101300.7661
101300.846
101300.2297
101299.6814
101299.5807
101299.8099
101300.2297
101300.3176
101295.8895
101287.1747
101279.461
101274.7517
101274.5973
101278.5062
101284.4943
101287.8855
101288.1335
101286.8733
101288.5278
101294.7472
101304.5092
101312.9484
101314.4797
101312.4932
101309.9539
101305.8879
101302.8976
101302.1945
101296.4168
101288.7871
101281.9371
101277.72
101277.6066
101281.2583
101286.86
101290.1199
101290.1307
101288.2651
101289.1285
101294.3825
101303.0382
101310.5615
101312.0301
101310.4083
101308.4353
101305.1469
101302.75
101302.3869
101297.4345
101291.8666
101286.6014
101283.3302
101283.3425
101286.5749
101291.6167
101294.4065
101293.7644
101290.7046
101290.086
101293.5729
101300.3866
101306.4676
101307.8797
101306.8155
101305.8078
101303.7453
101302.3795
101302.6239
101298.8565
101296.0666
101292.8647
101290.9575
101291.2179
101294.0518
101298.4364
101300.291
101298.381
101293.7546
101291.0388
101292.1968
101296.6756
101301.1914
101302.5349
101302.3967
101302.3951
101301.7357
101301.5812
101302.7093
101300.5111
101300.7752
101299.9514
101299.7517
101300.5055
101303.0219
101306.6844
101307.1635
101303.6743
101296.9685
101291.8462
101290.444
101292.5316
101295.4065
101296.7699
101297.3372
101298.3838
101299.0911
101300.2178
101302.4729
101302.1136
101305.368
101306.947
101308.7336
101310.2916
101312.705
101315.3545
101314.3391
101308.7603
101300.1678
101292.7926
101288.6893
101288.2054
101289.4119
101290.5377
101291.8162
101293.826
101295.849
101298.2586
101301.9602
101303.5327
101309.2446
101313.1004
101316.9939
101319.7249
101322.227
101323.8177
101320.9203
101313.4152
101302.7913
101293.5743
101287.1083
101284.2187
101283.6329
101284.475
101286.1254
101289.0856
101292.2055
101295.9365
101301.2431
101304.6281
101311.9355
101317.9171
101323.8378
101327.8477
101330.6443
101330.9754
101326.3405
101316.7918
101304.7014
101293.9575
101285.8137
101280.7608
101278.6239
101278.8232
101280.7134
101284.3936
101288.6566
101293.4948
101300.4842
101305.2723
101313.3698
101321.0573
101328.6774
101334.0164
101337.0547
101336.4193
101330.133
101319.0917
101305.7226
101293.982
101284.5783
101278.1992
101274.7995
101274.4105
101276.2709
101280.587
101285.7089
101291.5008
101299.6977
101305.419
101313.6161
101322.3388
101331.2677
101337.5378
101340.932
101339.5088
101332.1343
101320.1251
101306.0287
101293.6419
101283.7856
101276.675
101272.6134
101271.6321
101273.5226
101278.2631
101283.9254
101290.1929
101298.9975
101305.1451
101313.0454
101322.2697
101331.7714
101338.7097
101342.3698
101340.5107
101332.5412
101320.0644
101305.5342
101293.1139
101283.2974
101276.3704
101272.1136
101270.7957
101272.6903
101277.7156
101283.4585
101289.6814
101298.4237
101304.6255
101312.0467
101321.1698
101330.6639
101337.9013
101341.7292
101339.7056
101331.4553
101318.8383
101304.4506
101292.441
101283.3494
101277.0527
101273.0671
101271.5152
101273.3698
101278.5274
101284.1084
101289.8644
101298.0888
101303.9884
101310.7816
101319.1961
101328.2018
101335.3634
101339.2936
101337.4454
101329.0735
101316.5785
101302.7078
101291.6068
101283.6623
101278.4649
101275.0487
101273.3547
101275.0005
101280.2309
101285.5661
101290.6339
101297.9875
101303.2301
101309.1167
101316.4437
101324.5349
101331.2767
101335.2756
101333.9051
101325.8095
101313.6517
101300.5762
101290.6964
101284.4447
101280.6957
101278.0542
101276.0524
101277.316
101282.518
101287.5111
101291.7294
101298.1767
101302.3563
101307.1431
101313.1621
101320.0488
101326.1199
101330.1201
101329.4166
101322.0142
101310.7589
101298.7116
101290.4159
101286.1113
101284.1049
101282.1971
101279.6657
101280.2035
101285.1409
101289.654
101292.9876
101298.6046
101301.4527
101305.0667
101309.746
101315.3687
101320.6655
101324.5086
101324.3663
101318.087
101308.093
101297.643
101291.078
101288.8129
101288.4206
101287.0185
101283.6755
101283.307
101287.7637
101291.6773
101294.2229
101299.0737
101300.6808
101303.2639
101306.6784
101311.0937
101315.5439
101318.9871
101319.2184
101314.1849
101306.0313
101297.5243
101292.923
101292.1591
101292.7968
101291.5872
101287.7244
101286.5728
101290.3345
101293.5505
101295.4677
101299.4326
101300.2347
101301.793
101304.0176
101307.2679
101310.7727
101313.5139
101313.8913
101310.1462
101304.1084
101298.0158
101295.0161
101295.245
101296.231
101295.3456
101291.5297
101289.9446
101292.7221
101295.1462
101296.6096
101299.6689
101300.1038
101300.8348
101302.094
101303.8409
101306.3151
101307.8196
101308.2609
101305.9257
101302.409
101298.7463
101297.1544
101297.4026
101298.1608
101297.4328
101294.8037
101293.407
101295.054
101296.744
101297.8308
101299.8349
101300.12
101300.3433
101300.5283
101301.4478
101301.9391
101303.0105
101302.9025
101302.3354
101300.8069
101299.6722
101299.1906
101299.3638
101299.5824
101299.2472
101298.22
101297.6758
101298.2244
101298.8726
101299.318
101299.9607
101298.1239
101293.8533
101289.391
101287.8645
101287.3152
101288.224
101288.2528
101285.0674
101280.8449
101278.0236
101280.5368
101286.9995
101293.4303
101296.3562
101295.1921
101294.327
101297.1712
101296.9137
101295.3698
101299.3499
101298.6409
101295.4051
101291.6522
101290.4837
101290.0095
101290.8912
101291.2814
101288.5687
101284.1102
101280.6229
101282.0447
101287.3967
101292.9577
101295.3092
101293.8075
101292.6617
101295.6411
101296.2274
101295.6731
101299.7983
101299.6656
101298.3626
101295.9365
101295.4705
101295.2112
101296.1405
101296.9607
101294.4275
101289.4452
101284.8068
101284.5834
101287.7752
101291.6364
101292.9567
101291.0208
101289.6635
101292.9921
101295.0913
101296.1004
101300.5345
101301.1242
101302.3519
101301.7414
101302.3201
101302.4793
101303.504
101304.4229
101301.5885
101295.887
101290.0843
101287.606
101288.1076
101289.449
101289.3442
101287.085
101285.5612
101289.4204
101293.5183
101296.4067
101301.3255
101302.8139
101306.7701
101308.3213
101310.3141
101311.1168
101312.2144
101312.9254
101309.3951
101302.7812
101295.1273
101290.5622
101287.9072
101286.4637
101284.5499
101281.9958
101280.6482
101285.195
101291.3878
101296.3103
101302.0902
101304.3249
101310.9811
101314.8007
101318.5547
101320.2697
101321.3713
101321.4785
101317.0464
101308.9849
101300.0629
101293.262
101287.6658
101283.1865
101279.3773
101276.3512
101275.2475
101280.5024
101288.7355
101295.7002
101302.8642
101305.5423
101314.2508
101320.3995
101326.2151
101329.0622
101330.1607
101329.3312
101323.7906
101314.9736
101304.4956
101296.4604
101287.361
101279.9773
101274.2468
101270.6686
101269.7203
101275.7341
101285.8542
101294.6976
101303.6335
101306.3965
101316.1159
101324.6108
101332.4316
101336.5775
101337.5374
101335.4689
101328.7176
101318.7202
101307.8571
101298.2235
101287.3005
101277.0111
101269.6408
101265.559
101264.829
101271.5914
101283.3584
101293.6993
101304.1554
101306.7851
101316.7858
101327.0184
101336.5974
101341.8955
101342.7702
101339.4861
101331.6693
101321.036
101309.4235
101298.7182
101286.5416
101274.8048
101266.2405
101261.8418
101261.4195
101268.9153
101281.6588
101292.7298
101304.1416
101306.7505
101316.5461
101327.8438
101338.5167
101344.6248
101345.5025
101341.3029
101332.705
101321.4184
101309.3467
101297.8922
101285.6753
101273.4532
101264.3714
101259.7673
101259.7945
101267.9121
101280.739
101291.6822
101303.356
101306.4085
101315.7832
101327.3756
101338.4332
101344.912
101345.8276
101341.0723
101332.0077
101320.2501
101307.8225
101296.1985
101284.3931
101272.9822
101263.9048
101259.1627
101259.6673
101268.2362
101280.3989
101290.5427
101301.9713
101305.9236
101314.6998
101325.8462
101336.6272
101343.107
101344.0374
101338.9595
101329.6301
101317.4684
101304.8162
101293.7445
101283.1346
101272.9566
101264.2198
101259.5119
101260.5545
101269.3996
101280.5102
101289.4826
101300.3025
101305.3349
101313.2505
101323.3268
101333.2742
101339.4894
101340.5291
101335.2976
101325.5216
101313.1723
101300.6283
101290.6727
101281.6392
101273.1318
101265.0915
101260.6868
101262.2856
101271.2988
101281.1921
101288.7515
101298.7696
101304.5692
101311.3445
101319.8918
101328.5618
101334.3349
101335.6994
101330.7087
101320.4166
101307.7248
101295.6311
101287.2289
101280.3627
101273.8058
101267.1614
101263.1753
101264.9662
101274.0754
101282.6712
101288.5999
101297.6431
101303.5877
101309.0377
101315.8564
101323.0814
101328.3381
101330.1494
101325.7643
101315.2612
101302.6111
101291.3386
101284.8297
101280.6397
101276.2106
101271.0214
101267.1121
101268.563
101277.604
101284.9706
101289.1306
101297.0599
101302.5116
101306.5966
101311.7509
101317.6031
101322.2595
101324.4066
101320.7891
101310.8368
101298.9196
101289.0946
101284.6048
101282.9646
101280.5173
101276.426
101272.184
101272.9868
101281.5614
101287.7322
101290.2949
101297.0391
101301.5036
101304.4073
101308.1456
101312.8159
101316.7678
101318.9687
101316.0646
101307.4416
101297.2341
101289.4625
101286.9508
101287.0396
101285.9692
101282.5703
101278.0453
101278.2194
101285.7671
101290.6653
101292.0615
101297.4335
101300.8197
101302.5388
101305.0595
101308.7138
101311.9415
101313.6339
101311.4553
101304.7634
101297.1685
101291.6994
101290.4445
101291.3838
101291.1563
101288.6358
101284.3501
101284.047
101289.925
101293.3411
101294.0309
101298.0794
101300.4365
101301.13
101302.6019
101304.5125
101306.717
101307.5367
101306.2776
101302.1295
101297.9279
101294.9556
101294.3699
101295.0349
101294.9433
101293.3418
101290.5457
101290.1462
101293.6281
101295.744
101296.1407
101298.8285
101300.2185
101300.5317
101300.7101
101301.9563
101302.5243
101303.3897
101302.552
101301.2745
101299.4668
101298.4619
101298.4294
101298.6454
101298.4806
101297.8827
101297.0557
101296.9578
101298.0747
101298.6932
101298.8568
101299.6265
101300.3267
101300.3026
101298.8498
101300.27
101298.5413
101296.5398
101291.0556
101282.702
101275.0522
101271.8402
101275.9245
101281.52
101282.9037
101279.9208
101276.8526
101277.2579
101286.7767
101294.5226
101296.3651
101303.9685
101300.752
101301.6552
101300.7448
101302.6268
101301.3169
101299.4956
101294.7875
101286.8097
101279.1589
101275.3273
101277.7223
101281.704
101282.8852
101279.8243
101276.2145
101276.267
101284.891
101292.9551
101295.9415
101303.5388
101301.563
101304.1806
101304.3061
101307.0113
101306.4873
101305.0561
101301.1925
101293.6068
101286.0368
101281.1327
101280.884
101282.4582
101282.4211