/*--------------------------------*- C++ -*----------------------------------*\
| =========                 |                                                 |
| \\      /  F ield         | OpenFOAM: The Open Source CFD Toolbox           |
|  \\    /   O peration     | Version:  5.x                                   |
|   \\  /    A nd           | Web:      www.OpenFOAM.org                      |
|    \\/     M anipulation  |                                                 |
\*---------------------------------------------------------------------------*/
FoamFile
{
    version     2.0;
    format      ascii;
    class       surfaceScalarField;
    location    "3.2";
    object      phi;
}
// * * * * * * * * * * * * * * * * * * * * * * * * * * * * * * * * * * * * * //

dimensions      [1 0 -1 0 0 0 0];

internalField   nonuniform List<scalar> 
91025
(
0.8433882569
0.03190697829
-0.06504786302
0.7737139503
0.05934700424
0.01012782047
0.888431447
0.1269030736
-0.06202147996
0.8459950906
0.103063097
0.02877044284
0.6864404755
0.09900986451
-0.03420392001
0.2342113343
0.02840411333
0.01555147373
-0.4086610993
-0.009095698974
-0.05631262498
-1.168911691
-0.06852198934
-0.04436299879
-1.774878813
-0.08530819117
-0.08292251784
-2.050652414
-0.101531787
-0.02229844901
-1.885336123
-0.09016066506
0.04562390909
-1.391938641
-0.1034086799
0.1524248266
-0.7814290431
-0.1020625728
0.2031470249
-0.2297842652
-0.1273478031
0.2130258738
0.1999651696
-0.1215840678
0.1595499912
0.5778716215
-0.1124772774
0.134709918
0.9433016233
-0.07353863932
0.1357221907
1.242860729
-0.04966778727
0.125381225
1.376895475
-0.02487716788
0.08239666102
-0.01665493952
0.03553661837
0.8677526394
0.06437131415
-0.06257812631
0.7932780682
0.1075895854
0.01450345391
0.8903891877
0.2430968115
-0.05594497443
0.8344240389
0.1876725696
0.03406265951
0.663211323
0.1806376991
-0.02957340177
0.2081990131
0.04543497698
0.01981139049
-0.4290463119
-0.02146288698
-0.05035286328
-1.181170557
-0.1316595854
-0.03975128695
-1.777999935
-0.1587751443
-0.07547562904
-2.050219014
-0.1892688198
-0.01995280982
-1.888402512
-0.1630051629
0.05012925849
-1.398322273
-0.1822765484
0.1509948822
-0.7891515655
-0.1747757048
0.2051537697
-0.2323038532
-0.2158554556
0.2138169986
0.206252788
-0.2012650153
0.166102948
0.5905477538
-0.183656531
0.1411846461
0.957150082
-0.11284761
0.1415507181
1.253326193
-0.07426210541
0.1292648219
1.385675292
-0.03576152145
0.08563101654
-0.02764393818
0.03691622545
0.9108789752
0.0982281002
-0.05793294027
0.8289467438
0.1388301719
0.02122421859
0.889629155
0.3344442251
-0.04708236535
0.808560803
0.2426328497
0.0425254406
0.6155620233
0.2357702303
-0.02283315189
0.1558446432
0.04374205791
0.02744041249
-0.4723818001
-0.03436339477
-0.04468449087
-1.210749073
-0.1876227632
-0.03155979469
-1.788781664
-0.2025575002
-0.07419096725
-2.053396776
-0.2534143288
-0.01518567216
-1.889902714
-0.1974904952
0.03997851466
-1.405286196
-0.2211349921
0.1488841882
-0.7951515797
-0.1909975384
0.1963231975
-0.2288164152
-0.2421404209
0.2159312937
0.2240932388
-0.2069760223
0.1714802428
0.6191196398
-0.1887970124
0.1520604737
0.9845308978
-0.09472061312
0.1485837692
1.273555203
-0.06105234806
0.1350874125
1.401632305
-0.02317395578
0.08971529369
-0.03033235604
0.03908038553
0.9723179933
0.1305328699
-0.05400352474
0.8789773242
0.1524326311
0.02976485799
0.8920081117
0.3835063949
-0.03965148336
0.7749224484
0.2569116402
0.05196320475
0.5574397595
0.2544156794
-0.01283825834
0.09504493333
0.01940551338
0.03729151549
-0.5199364408
-0.05377302663
-0.02948109502
-1.237068994
-0.2372699464
-0.02218565071
-1.796124009
-0.2328013062
-0.05601147579
-2.047411853
-0.2893416971
-0.01024968682
-1.891588076
-0.2008026122
0.05336612506
-1.41334375
-0.2154637811
0.1454284846
-0.8066533481
-0.1572168894
0.2030971469
-0.2290028197
-0.2027381118
0.2181518522
0.241258807
-0.1485347776
0.186097212
0.6470083761
-0.1305611328
0.1634673015
1.00925495
-0.02931947638
0.1581940676
1.286430706
-0.01368084338
0.1394596898
1.411055611
0.009162467069
0.09401872249
-0.02370406141
0.04047977359
1.037173924
0.1530297678
-0.05064744051
0.9246182348
0.142504901
0.03411148603
0.8851811408
0.3914137901
-0.03543928641
0.7258212291
0.2263342306
0.057675403
0.480711885
0.2402546796
-0.00665033305
0.01923337365
-0.02463539978
0.04688823159
-0.5814335286
-0.07160292479
-0.02365382143
-1.271900909
-0.2810090446
-0.01287349604
-1.803820005
-0.2307694845
-0.05986132211
-2.038637118
-0.2973772511
-0.004376537932
-1.876233371
-0.1583453779
0.03273243389
-1.405157318
-0.1668143683
0.1421446177
-0.7997215295
-0.0625860531
0.1869912033
-0.2125648633
-0.1043403317
0.2197354556
0.270936108
-0.02536643307
0.188480028
0.6830914919
-0.02096146463
0.1720026196
1.033498977
0.07910131417
0.1597125478
1.294932921
0.06094664789
0.1398392336
1.412937319
0.06245564485
0.09405036032
-0.01032478636
0.04095254054
1.109720552
0.1613951499
-0.05036552828
0.9681237731
0.09498171155
0.03377855302
0.880352097
0.3536466041
-0.03629955313
0.6788117744
0.1512099714
0.05935444815
0.4110748487
0.1913006153
-0.0002109903529
-0.04743896871
-0.0923811266
0.05407247951
-0.6299055473
-0.1003341973
-0.008701152973
-1.287035909
-0.3186241533
-0.006292374106
-1.795296122
-0.2273493769
-0.03964000504
-2.010020128
-0.2830223429
-0.0009610642144
-1.855523999
-0.09654554771
0.0551993579
-1.391929045
-0.08060849588
0.138718178
-0.7964231767
0.06827468375
0.1980841466
-0.2035705078
0.04260084939
0.2191778119
0.289832218
0.1415765563
0.2002190205
0.7026901407
0.1290053848
0.1753881888
1.0384928
0.211396526
0.1603812232
1.281107095
0.1537098687
0.1349576416
1.393830753
0.1257094244
0.09154658495
0.009994021443
0.03950609036
1.164719496
0.1542229651
-0.05108715118
0.9959898687
0.01164370468
0.02649980273
0.861628324
0.2718203174
-0.0444615163
0.6235268874
0.03503041766
0.05311249556
0.3350441052
0.1145917799
-0.004291249259
-0.1188629539
-0.1799762864
0.05503671352
-0.6819537879
-0.1343578841
-0.01338797431
-1.30408233
-0.3542913937
-0.004087482566
-1.777846966
-0.2015145752
-0.05191514767
-1.972667768
-0.2513775362
0.002016672392
-1.80584204
0.001160874921
0.02995421015
-1.353088714
0.03632685609
0.1373695149
-0.7660684404
0.2505176153
0.1800569798
-0.1755291138
0.2370873539
0.2174252622
0.3161081198
0.3542770574
0.1942599362
0.7211787295
0.3103832186
0.1735677472
1.034523632
0.3662780507
0.1515122506
1.256450807
0.2597270144
0.126403101
1.359536954
0.2024327416
0.08493038417
0.03411588221
0.03697452593
1.20746136
0.1326549883
-0.05440766017
1.017699675
-0.1027926818
0.0169677329
0.8487794823
0.1509291887
-0.05662234409
0.58178161
-0.1194074618
0.04132476242
0.2791291069
0.007880517138
-0.01073918828
-0.1660211988
-0.2900675087
0.0484431715
-0.7089443382
-0.1890547193
-0.01132832209
-1.292089408
-0.3956545503
-0.008612693954
-1.73697753
-0.1898395761
-0.03679930694
-1.90582927
-0.2126593387
0.002738002826
-1.74568058
0.09880780866
0.05959896261
-1.30484595
0.1727481889
0.1372679557
-0.7393072806
0.4425450412
0.1947886692
-0.1608503274
0.456919347
0.2141781486
0.321046218
0.5830296846
0.1993308851
0.7119670703
0.5115579018
0.1687477734
1.004070037
0.5311200476
0.145769926
1.204777335
0.3775353886
0.1171582564
1.298997059
0.2855768401
0.07840188585
0.06288883434
0.03354325924
1.211319494
0.1040583459
-0.05736494342
1.014447183
-0.2348692258
0.004600783405
0.8233593733
0.007521124158
-0.07274537075
0.5393030419
-0.3040401094
0.02249336962
0.2258358507
-0.1258272107
-0.0307221856
-0.2091834483
-0.4211099304
0.03190033846
-0.728044021
-0.2565459503
-0.03220054826
-1.273663669
-0.4479497827
-0.02023174858
-1.678906664
-0.1789584957
-0.05257674553
-1.823094806
-0.1773086556
0.003752476821
-1.646950772
0.2011538848
0.04955325387
-1.224214669
0.3121944966
0.1408751993
-0.6801790372
0.6481994135
0.1837891148
-0.1292271676
0.6823174931
0.2106854252
0.3277502215
0.825383457
0.1885272886
0.6948797382
0.7199064203
0.1614934363
0.9595458833
0.7063247984
0.1353790569
1.137630018
0.5020946461
0.1082262992
1.215710825
0.3763598419
0.07108890173
0.09244321202
0.02986500676
1.189342057
0.07505465409
-0.05987394047
0.9999261444
-0.3670256164
-0.005628389074
0.8026642197
-0.145144317
-0.08659484949
0.5143015293
-0.4989949513
0.002197328794
0.1963347137
-0.2772815744
-0.05010813595
-0.2243381194
-0.5672407404
0.008037389563
-0.7189359992
-0.3433593928
-0.0472530768
-1.223982751
-0.5141224678
-0.03754538431
-1.595037531
-0.1899564123
-0.04812089467
-1.709587362
-0.156344015
0.003754985502
-1.533471405
0.28080865
0.0724239279
-1.12898243
0.4307307641
0.1454407196
-0.6208670014
0.8172337932
0.1950531777
-0.1089626467
0.878086716
0.2049111715
0.3131832287
1.034625317
0.1853613869
0.648391549
0.9071533532
0.153274182
0.888133333
0.8617949158
0.1300060744
1.041547689
0.6160159039
0.1023168196
1.102780099
0.4584393658
0.06555494474
0.1200216866
0.02677145168
1.120569836
0.05168399702
-0.06079076605
0.9511784116
-0.4819083282
-0.01514128698
0.7663549412
-0.2785723013
-0.09964556372
0.4866859342
-0.677386058
-0.02131460677
0.1760823947
-0.4199906303
-0.07839862692
-0.2313578635
-0.7125522923
-0.0231718338
-0.6957909409
-0.4322230709
-0.08032273979
-1.162235231
-0.5908676634
-0.05981860094
-1.488900027
-0.2093676021
-0.06608517605
-1.573754902
-0.1507636931
0.002573418952
-1.382691165
0.3397285625
0.06932706612
-0.9999796204
0.5183586486
0.1504814797
-0.5317964816
0.9461154635
0.1876798976
-0.07074089815
1.02465834
0.1979430859
0.3004991592
1.195569635
0.1709926394
0.594640744
1.047790435
0.1436615171
0.8011183324
0.979596334
0.123436567
0.9284898042
0.6991053609
0.0981166434
0.964175749
0.5202619017
0.06098565773
0.1381006889
0.02345644971
1.031039279
0.03671202219
-0.05923610742
0.8892957409
-0.570786617
-0.0193267431
0.7315641416
-0.3766920875
-0.1027605803
0.4707170173
-0.8306561489
-0.04054537141
0.1750699949
-0.5492739438
-0.09715807326
-0.2139097286
-0.8562307167
-0.05509307158
-0.6507743193
-0.5303314105
-0.1020187881
-1.0761419
-0.6693112107
-0.08224204433
-1.365442651
-0.2389137559
-0.06905787948
-1.417252842
-0.155143292
0.0004970280589
-1.225898707
0.3754836088
0.08262064964
-0.8646983937
0.5724961332
0.1534759268
-0.4444815697
1.022207426
0.1908325494
-0.04093034794
1.107999193
0.1874121972
0.272640219
1.280845076
0.1587015362
0.5212877454
1.117148882
0.1317929158
0.6972940809
1.032130145
0.1181077078
0.7979212829
0.7312689597
0.09571995395
0.8086543886
0.545127369
0.05582494251
0.1427469558
0.02132416498
0.9063099825
0.03263888808
-0.05586589927
0.8002412412
-0.633089668
-0.02123367767
0.674313539
-0.4425082878
-0.104318027
0.4437019564
-0.9502371792
-0.05679732814
0.171476521
-0.6568323912
-0.1204555757
-0.190408299
-0.9816570649
-0.08508861585
-0.5918411473
-0.6169386671
-0.1323393791
-0.9747545555
-0.7428649187
-0.1030519598
-1.219447517
-0.2642817415
-0.08489585044
-1.24394037
-0.1636300247
-0.002049082392
-1.044094716
0.3953633199
0.0793677798
-0.7089779604
0.5957439308
0.1543591727
-0.3384400411
1.051441831
0.1817208559
0.001325701456
1.126913124
0.1748498069
0.2468019379
1.291423619
0.1399638293
0.4458458268
1.109414924
0.1182346435
0.5857065473
1.017398279
0.1129972275
0.66031782
0.7068428797
0.09363374094
0.6414818182
0.529519711
0.05220897821
0.1314330715
0.01820945718
0.7774667905
0.03702953012
-0.04916602852
0.7073978977
-0.6673226385
-0.02117841317
0.6136786005
-0.4800432242
-0.09840280981
0.4180575473
-1.028277946
-0.06582749617
0.1763184453
-0.7282952831
-0.1281993409
-0.152428319
-1.075331309
-0.106499872
-0.5173840536
-0.6866992722
-0.1436863438
-0.8584012947
-0.8043890018
-0.1176124631
-1.066104143
-0.293500857
-0.08579887437
-1.066992028
-0.1818232437
-0.00498057365
-0.8721520903
0.3958590502
0.0840056415
-0.5639800063
0.5852394345
0.1511232065
-0.2477566103
1.026759629
0.1758546677
0.02258181084
1.075176304
0.1584495551
0.2080649305
1.224508593
0.1198929616
0.3608369044
1.02851059
0.1013535619
0.4728486901
0.9390595615
0.1053590949
0.5266798214
0.6321742863
0.09180965621
0.4859827314
0.4757513218
0.04715492144
0.1053402626
0.01756179941
0.6269594917
0.05334636348
-0.04290846212
0.5930937321
-0.6695799951
-0.01872673099
0.5330238454
-0.4729519459
-0.09240799726
0.3785148065
-1.057398074
-0.06942373294
0.1745720592
-0.7555914391
-0.1343864912
-0.1147674968
-1.132714003
-0.1186141597
-0.4334049639
-0.730826699
-0.1561463604
-0.7287880994
-0.8578265405
-0.1244477093
-0.8981688513
-0.3245560567
-0.0927558361
-0.8795712951
-0.212733073
-0.006801185579
-0.6905984904
0.3699597936
0.07703188894
-0.4158549302
0.5318399346
0.1440981053
-0.1540648547
0.9486495599
0.1609774693
0.04580349907
0.953270492
0.1383009472
0.1701715194
1.089211099
0.09903924546
0.2775591019
0.8848306829
0.0837945579
0.3610397086
0.8141850013
0.09774439764
0.3978960588
0.5223426825
0.08774949702
0.3382101129
0.3947550921
0.04512974031
0.06890858769
0.01586774605
0.4897183166
0.07835082617
-0.03329985663
0.4828265431
-0.6397831259
-0.01404039595
0.4540818575
-0.4299423395
-0.0755980327
0.3392272307
-1.040263441
-0.06458308822
0.171283413
-0.7494056613
-0.119257026
-0.07452146511
-1.162318348
-0.1170084875
-0.3494889162
-0.7638115972
-0.1438921928
-0.597695438
-0.9026138838
-0.1198564682
-0.7342714446
-0.358071086
-0.08266977774
-0.7020234661
-0.2506697441
-0.006977589992
-0.5342298057
0.32186104
0.07410973183
-0.2976799671
0.4463983812
0.1311381097
-0.08998386743
0.8231984551
0.1444221891
0.05025434419
0.7746233892
0.1163674738
0.1251404569
0.8998905827
0.07758416743
0.1964142465
0.6978626066
0.06517997192
0.2633641236
0.6637788233
0.08409900409
0.2908296524
0.3939319469
0.08097988222
0.2258268844
0.3005450439
0.03925333886
0.026812013
0.01643838859
0.3500486227
0.1117720817
-0.02567857512
0.3644437736
-0.5909122944
-0.007716737953
0.3596981906
-0.359264484
-0.06081167626
0.282534456
-0.9969179689
-0.05337927447
0.1526837949
-0.7199459724
-0.1052645027
-0.04487489097
-1.174966359
-0.1041953428
-0.2668157378
-0.7830854937
-0.1316947742
-0.4632662939
-0.9389368442
-0.1059262831
-0.5640253359
-0.3852447523
-0.07709401694
-0.5257316844
-0.2873510019
-0.006263722889
-0.3791806785
0.2735381287
0.06027946503
-0.1874145217
0.3526445092
0.1119946838
-0.031763263
0.6792371345
0.1185370913
0.05547799366
0.5799981053
0.09242618852
0.08967858913
0.6934148433
0.05687397622
0.1285597894
0.5019375372
0.04599872379
0.1749275329
0.5117094212
0.0702641938
0.1940423439
0.2701864872
0.06913065943
0.1298666093
0.2083255372
0.03633555462
-0.01115244716
0.01372897328
0.2366708102
0.1448027588
-0.0149133114
0.2570255371
-0.5353726026
-0.003297231956
0.2668679719
-0.288151616
-0.03856018099
0.2176468821
-0.9446548497
-0.0379576628
0.1249538792
-0.6896532848
-0.07357627901
-0.02035638868
-1.176193184
-0.079276633
-0.186709075
-0.7982391251
-0.09500626267
-0.3307396624
-0.9633873911
-0.08108862612
-0.4032327452
-0.4058558847
-0.05414819024
-0.369212411
-0.3118965061
-0.004441558753
-0.2585808281
0.231895298
0.05024522444
-0.1165520919
0.2714917273
0.08633055016
-0.008167279687
0.5526237411
0.09069056914
0.04267565727
0.4080283833
0.06662992968
0.05500249027
0.5120878718
0.03620708004
0.07428149725
0.3290256638
0.02833919664
0.1098554888
0.3811902058
0.04895823835
0.1245251637
0.1671976208
0.05305474713
0.07494145495
0.1360478475
0.02673173058
-0.0401806563
0.01263183834
0.1286866285
0.168685716
-0.009542022858
0.1465219492
-0.4918664423
0.0001200789927
0.1585345297
-0.2305089937
-0.02389286397
0.1332943827
-0.8996117623
-0.02207197132
0.07881325742
-0.6581310327
-0.04872862092
-0.01001807634
-1.167595427
-0.05090420172
-0.1116129676
-0.7993747095
-0.06554251436
-0.199166124
-0.9733634681
-0.05292408895
-0.2377625873
-0.4132404288
-0.03947780269
-0.2141302142
-0.3213556532
-0.003504620737
-0.1417543996
0.2162349309
0.02704288944
-0.05539461086
0.2325793752
0.0523803178
0.008604951908
0.4840683058
0.05357272113
0.03380005809
0.3125568236
0.0388666996
0.03405948521
0.408322011
0.02015368269
0.04067778725
0.2309857085
0.01469306384
0.05787663849
0.3089603434
0.03085617759
0.06540690655
0.1106705801
0.03294303764
0.03219149546
0.09661342493
0.01944862105
-0.0541774709
0.007587179642
0.04630615272
-0.001173205618
0.05567479818
-8.273103579e-05
0.05996795294
-0.004751825083
0.05212400394
-0.007443595981
0.03115257586
-0.01299018798
5.073324179e-06
-0.01661721872
-0.0378981162
-0.01812977986
-0.0677401232
-0.01720797482
-0.08524862522
-0.009634298242
-0.07686597737
-0.001229134031
-0.0519917316
0.01137102395
-0.02054009091
0.01701401478
0.0007699071744
0.01719738701
0.009061063344
0.01101428149
0.00918832892
0.003447439058
0.009971910892
0.00220638651
0.01698814024
0.007069420933
0.01985855369
0.01076972609
0.0103632911
0.004907748867
0.00387400525
0.8086405006
0.04402539873
-0.09763791768
0.7902931639
0.07602485436
0.08469341085
0.9234411185
0.154935203
-0.0375520266
0.8757033409
0.1248803511
0.1496446852
0.6873854264
0.1190698266
0.02216190422
0.2128979085
0.04574748651
0.1069373769
-0.4438738847
0.01057609477
-0.04058210176
-1.172133162
-0.05273768137
-0.04259602686
-1.712559157
-0.070310331
-0.1094092159
-1.90848345
-0.09640279118
-0.008098724375
-1.7163583
-0.09399985917
0.1048310647
-1.284571477
-0.1131853547
0.2510357085
-0.7720001568
-0.1121882162
0.2938330238
-0.2885325312
-0.1286014271
0.2715515011
0.1491381763
-0.1071623633
0.1791856695
0.5617838749
-0.09087980323
0.1362949037
0.9075761296
-0.0571959464
0.1548413793
1.15421677
-0.03749565939
0.1499327939
1.249478097
-0.01810012821
0.07644481067
-0.01197478619
0.03168993923
0.8379256726
0.08473769102
-0.09525816103
0.8125817141
0.136595783
0.09120290405
0.9244825744
0.2860631784
-0.0313527223
0.8616637044
0.2253814768
0.1565805435
0.6629857573
0.2157107918
0.02871628761
0.1866151501
0.07693535102
0.1141977559
-0.4656479317
0.01525695212
-0.0270166575
-1.186250755
-0.1045696926
-0.0317590687
-1.719513825
-0.1322470829
-0.09287467373
-1.912137378
-0.1803811824
-0.001446934514
-1.722128219
-0.1698923028
0.1139273725
-1.289393982
-0.2001208824
0.2509829041
-0.774906341
-0.1921904979
0.3000272207
-0.2841374118
-0.2176529369
0.2763174241
0.1591116324
-0.1757845888
0.1909703249
0.5741945387
-0.1473926082
0.1469469687
0.9193667249
-0.08631773725
0.1630017825
1.162661894
-0.05690947979
0.1557613558
1.256076861
-0.02654523941
0.08228087407
-0.02092810584
0.03415534169
0.8904974382
0.1193386111
-0.09003512318
0.8521841679
0.1735355798
0.1006841513
0.9248348322
0.3730284698
-0.02129394821
0.8333448124
0.282105464
0.1674345001
0.615232842
0.275861745
0.03825291503
0.1353513522
0.08375129862
0.1279722644
-0.5103521356
0.01318119731
-0.01308203702
-1.217276998
-0.1559676826
-0.01219550915
-1.736044743
-0.1731191693
-0.08447638768
-1.921648121
-0.2424030987
0.01063202226
-1.728177852
-0.2090075128
0.09918433248
-1.293641898
-0.2433059025
0.2509498083
-0.773558126
-0.2150621217
0.2901116697
-0.2708200691
-0.2449641548
0.2846843469
0.1809139431
-0.1814230663
0.2012026018
0.5997092739
-0.1514882418
0.163885907
0.9410245527
-0.07258568231
0.1713158039
1.177900975
-0.05005164463
0.1636666456
1.267599621
-0.01978722312
0.09037992344
-0.02587781176
0.03840416175
0.9613105692
0.1438064688
-0.08673542199
0.9019420222
0.1787096294
0.111097676
0.9282746741
0.4065666202
-0.01202381338
0.7984761294
0.2842631495
0.1804621623
0.557029243
0.2894106608
0.0532613743
0.07423568136
0.05971974489
0.1448486972
-0.5634792079
-0.003111872461
0.01740300394
-1.249499331
-0.2083380538
0.009572048107
-1.752376724
-0.2062092422
-0.04595516634
-1.926362721
-0.2784313989
0.024124808
-1.736731738
-0.2133016728
0.1245364636
-1.299348258
-0.2374696758
0.2487613709
-0.7738349551
-0.1825703145
0.3047868144
-0.2577007206
-0.2082099887
0.2925527291
0.2044292099
-0.1277819016
0.2246233861
0.6250172218
-0.1037524481
0.1814852719
0.9610219628
-0.02040772392
0.1820563254
1.188907004
-0.01789039444
0.1696139298
1.276266173
0.0008826434507
0.1000735219
-0.0257282154
0.04291307134
1.035073249
0.1568627569
-0.08323052836
0.9479232638
0.1451234932
0.1141386843
0.9248813659
0.3899553252
-0.006565738081
0.7536744637
0.2321265574
0.1889651804
0.4853984674
0.2585894758
0.06277489404
0.0008200730159
0.004100011416
0.1615238126
-0.6292270535
-0.03515531175
0.03008784304
-1.287969261
-0.260512731
0.03015990553
-1.766779159
-0.2163892282
-0.04541689999
-1.926791579
-0.2877949799
0.03852227154
-1.727583459
-0.1719137856
0.08870914571
-1.289588643
-0.1838477979
0.2467175706
-0.7585390782
-0.0889857053
0.2817849184
-0.232246703
-0.1137738616
0.2985635723
0.2348994652
-0.0177033847
0.2282633706
0.6525997534
-0.01284456229
0.1937803895
0.9774924838
0.06723058168
0.1801546021
1.19449299
0.03603134037
0.1699182679
1.278727109
0.03948452202
0.1038265561
-0.02021723022
0.04727937619
1.106996657
0.1558951009
-0.08473271708
0.9909833121
0.07605876417
0.1117166627
0.922067383
0.3255980957
-0.009820554757
0.7111151387
0.1307559677
0.1921473992
0.4196128304
0.1849873553
0.0725338897
-0.06856351296
-0.08529631916
0.1730417185
-0.6840831421
-0.08893104399
0.0556271914
-1.30946313
-0.3134560804
0.04624342204
-1.762935308
-0.2241536485
-0.003932827798
-1.90629218
-0.2759569587
0.05108541757
-1.712986341
-0.1045348939
0.1303422274
-1.277032639
-0.08901359171
0.2447702768
-0.7466768271
0.04680246572
0.3026772248
-0.214454292
0.02862567793
0.3007804705
0.2552989752
0.1366776093
0.2465654836
0.6652023324
0.1168270073
0.1993998049
0.9787808041
0.1822508085
0.1790392607
1.183812073
0.112493612
0.1652723024
1.267936359
0.09332867025
0.105666285
-0.007141424044
0.04982902958
1.158919163
0.1407093955
-0.08673202683
1.017039969
-0.02104609126
0.09810782605
0.9084549667
0.2225038388
-0.02355462822
0.6642262759
-0.00808627405
0.1825739175
0.3512748284
0.07706797366
0.06622639671
-0.1376857767
-0.2054605509
0.1738157102
-0.7362340708
-0.1585567985
0.04927693594
-1.326320626
-0.3696390023
0.05239310696
-1.746500566
-0.2136953481
-0.02132645244
-1.872265602
-0.2452340306
0.06015438133
-1.665796234
0.005711655808
0.07631696169
-1.239540857
0.03971621378
0.2446751833
-0.7153296386
0.236661449
0.2745419192
-0.1857757647
0.2203662783
0.3016186548
0.2759067187
0.3361129809
0.2396421387
0.6718630169
0.2823436028
0.1999398564
0.9691319209
0.3266070158
0.1680013754
1.161221169
0.2116674676
0.1582338907
1.242134793
0.1661528611
0.1033561883
0.01346126395
0.05101406291
1.189778058
0.1160126857
-0.09298859952
1.031676436
-0.1429372121
0.08079438826
0.8943935281
0.09202348948
-0.04534660424
0.6258502276
-0.1849451207
0.1624790776
0.2977983952
-0.06002960772
0.0544576125
-0.1854455619
-0.3510421433
0.1607426914
-0.762217125
-0.2506040594
0.05089258437
-1.311957252
-0.4351670196
0.04735034607
-1.700039444
-0.2144301972
0.008185023646
-1.803625929
-0.207042085
0.06643808618
-1.60894643
0.1168539792
0.1384103046
-1.196152827
0.1887503303
0.2476138171
-0.6890726268
0.438992123
0.303447688
-0.1712217533
0.4370064852
0.3016622198
0.2786337517
0.5553195393
0.2531676162
0.6574906303
0.4716368544
0.1996522855
0.938901067
0.4909622249
0.1659711376
1.115962834
0.3308246963
0.1526425649
1.194157186
0.2540068472
0.1020676761
0.04135425524
0.05107638406
1.182156464
0.0881547778
-0.09783019364
1.021778604
-0.2712271407
0.05738915231
0.8659300395
-0.05327542413
-0.0751941974
0.584867609
-0.3794345248
0.1269674487
0.2479908961
-0.2210541829
0.02021437682
-0.2238625529
-0.5133211134
0.1290010212
-0.7721699837
-0.3538203606
0.01670108368
-1.281430304
-0.5092272277
0.02812655877
-1.63000787
-0.216116939
-0.0171485924
-1.712830858
-0.1706066066
0.06846410067
-1.511741871
0.2286597918
0.1202958897
-1.121851329
0.3386311262
0.2546393829
-0.6389459247
0.6487728514
0.2890496538
-0.1471563516
0.6580713653
0.302384847
0.2787571338
0.7873249707
0.2455422075
0.6349668515
0.6743785973
0.1994799297
0.8927191366
0.6721850461
0.1613437968
1.051563783
0.4655270922
0.1488382883
1.119314043
0.3543390746
0.09958500482
0.07318447068
0.04927643085
1.145731728
0.06284034811
-0.1025417502
0.9946872416
-0.3915467306
0.03777586728
0.833784079
-0.1966200063
-0.1033416832
0.5519391617
-0.5697350129
0.08564432916
0.2149074589
-0.3821712828
-0.0167000693
-0.2376172369
-0.6772630855
0.08371843793
-0.752872099
-0.4638641251
-0.01155126606
-1.216702083
-0.5912397046
0.0005760150016
-1.52768098
-0.2364616369
-0.01137902108
-1.588018912
-0.1512715471
0.06958140434
-1.400224943
0.3104620194
0.1631997628
-1.036155645
0.4597510724
0.262840981
-0.5896168568
0.8193834698
0.3113832066
-0.1328513546
0.8475571476
0.3002570987
0.2641226273
0.9875181315
0.2509942634
0.5928443356
0.8546898653
0.1991803524
0.8255379669
0.8348287708
0.1644816819
0.9607699194
0.5881803481
0.1483797971
1.015413289
0.446159536
0.09639045111
0.102546222
0.0467769343
1.069299366
0.04554872433
-0.1038126296
0.9354091979
-0.4917612692
0.01900987474
0.7856362646
-0.309388284
-0.1304942365
0.5135520787
-0.7358840668
0.03856890968
0.1897437299
-0.5193653816
-0.07208661421
-0.2389361264
-0.8260316703
0.02630130971
-0.7130491312
-0.5610372943
-0.07259194609
-1.132974253
-0.6707437413
-0.0425651941
-1.39957919
-0.2608524011
-0.04625069251
-1.437172927
-0.146267292
0.06058218192
-1.252157152
0.365422965
0.1538356666
-0.9188330957
0.544869841
0.2672572553
-0.5164329146
0.9440920795
0.300493619
-0.1056290216
0.9866221007
0.2940660707
0.2495289465
1.138448278
0.2387086756
0.5441403402
0.988702376
0.1956693468
0.7413141342
0.9573218052
0.1655260885
0.8477431501
0.6781059522
0.1471211393
0.8797447182
0.5149286184
0.09266246367
0.1223559769
0.04063895966
0.9728540431
0.03795467794
-0.101090909
0.8635720814
-0.5668474018
0.006719687475
0.7319058695
-0.3937197798
-0.1450907261
0.4805764187
-0.8730956635
-0.00373439275
0.1756505816
-0.6400207564
-0.1159106071
-0.2212825319
-0.9586768735
-0.03365067266
-0.6544368869
-0.6508337654
-0.1188276068
-1.02738364
-0.7418883698
-0.08749842693
-1.253846741
-0.2860498694
-0.06121132947
-1.266996799
-0.1508919594
0.04803330518
-1.096989726
0.394529562
0.1682170739
-0.7950826257
0.5904379354
0.2654145158
-0.4428559392
1.012227293
0.3035969244
-0.0842374209
1.060774961
0.2796831234
0.225660617
1.217035762
0.227075803
0.4829922519
1.051345607
0.1862519387
0.6456722673
1.012550855
0.1646946557
0.7200945932
0.7131465022
0.1456632738
0.7283601523
0.5446001802
0.08407372395
0.1278514901
0.03514435359
0.8483323614
0.04022091347
-0.0955690371
0.7669635654
-0.6190639154
-0.00443281901
0.6600408743
-0.4468827856
-0.1600437372
0.4365945092
-0.9751116745
-0.04748544448
0.1632624234
-0.723125736
-0.1674214582
-0.1952990327
-1.057505399
-0.09531135404
-0.5797709476
-0.7118439925
-0.179067851
-0.9053428607
-0.7941958671
-0.1329702148
-1.089090235
-0.3008767726
-0.1004370435
-1.082713749
-0.1590802382
0.02931897404
-0.9195079173
0.4020717355
0.1508313494
-0.652233623
0.5987688058
0.257128652
-0.3527198394
1.027974204
0.2842152226
-0.05383890958
1.067579246
0.2595912606
0.2021699395
1.22139852
0.2049100814
0.4170195264
1.036838021
0.1727790777
0.5402489987
0.9963804638
0.1646138976
0.5811375256
0.6873784236
0.1427308807
0.5606902021
0.5309474534
0.07805771298
0.1175814156
0.02701218395
0.7189970303
0.05059018782
-0.08585615474
0.664624109
-0.6416127489
-0.01168206061
0.5841406097
-0.4607410725
-0.1575173664
0.3944799101
-1.024486912
-0.07891549875
0.1559034998
-0.7578505531
-0.1928939125
-0.1589979578
-1.11026966
-0.1426137315
-0.4958189171
-0.7395098544
-0.2108124421
-0.7750001429
-0.8229870714
-0.1693300698
-0.9229623697
-0.3124173024
-0.11757944
-0.9012455605
-0.1773183469
0.009737393502
-0.7514215396
0.387832733
0.14544
-0.5183423959
0.5669802212
0.2415875244
-0.2739023744
0.9840674868
0.2686165753
-0.03542827494
1.000649436
0.2328518269
0.1691568849
1.147957758
0.1798889024
0.3450403047
0.9462038801
0.1547351948
0.438120962
0.9111986329
0.1582468378
0.450797663
0.6039820893
0.1404195757
0.4083963075
0.4770095435
0.06566000128
0.09156133868
0.02335121396
0.5757341367
0.07214530972
-0.07683280993
0.5485581332
-0.6335898596
-0.01439923684
0.4956143751
-0.4323952708
-0.1560305325
0.3447206138
-1.022344187
-0.0975188369
0.1475519682
-0.7418383906
-0.2171279172
-0.1196429451
-1.120762359
-0.1740300049
-0.4035966088
-0.7350886427
-0.2429139223
-0.637118169
-0.8385308385
-0.1917879221
-0.750602037
-0.3237115092
-0.1435256435
-0.7165764985
-0.2091964604
-0.006241791297
-0.5778500479
0.3409628388
0.1216875351
-0.3827167431
0.4850521375
0.2220091036
-0.1926602203
0.8793549731
0.2401228936
-0.01617200612
0.8608122312
0.2030344242
0.1347068817
1.003233818
0.1522811008
0.2723386408
0.7917732952
0.135301771
0.3347887659
0.7721462854
0.1562231329
0.325135578
0.4783166634
0.1363598859
0.2618462308
0.3916945213
0.06206678471
0.05240600667
0.01740792042
0.4472787265
0.1004387341
-0.06023016611
0.4391207919
-0.5995998663
-0.01309555801
0.4113180939
-0.3758176582
-0.1323575634
0.2962312266
-0.9822868396
-0.09996238802
0.1373659975
-0.7008748934
-0.2008278447
-0.08163684102
-1.106158929
-0.180535451
-0.3183799094
-0.7209982387
-0.230325629
-0.5084019629
-0.8469859412
-0.1941605769
-0.5929811857
-0.3381025178
-0.1365131693
-0.5516282882
-0.2507564505
-0.01675780138
-0.4315469545
0.2691493029
0.1094428002
-0.2742001566
0.3638291142
0.195679863
-0.1349355547
0.7199219999
0.2109518535
-0.01318740136
0.6629505618
0.1674244628
0.09565105277
0.8085523589
0.1199021079
0.2034639537
0.6009511956
0.1093028284
0.2492303774
0.603982206
0.1387659213
0.2285784547
0.3298785325
0.1284440778
0.1570640042
0.2896558613
0.05072043049
0.00515149778
0.01764677572
0.3213132292
0.1330486823
-0.0482023647
0.3287202864
-0.5567282198
-0.007323963436
0.320363168
-0.3035961362
-0.1132710066
0.2390436816
-0.9285161002
-0.08922318243
0.1192722225
-0.6447335925
-0.1855028649
-0.05143085414
-1.082154758
-0.1669700366
-0.2372299404
-0.700518794
-0.2195517539
-0.383748
-0.8534756257
-0.177589904
-0.4400132262
-0.3485651133
-0.1350138202
-0.3958856206
-0.2923830805
-0.01961757371
-0.2933617794
0.1959013046
0.08380543436
-0.1737315428
0.2342033738
0.1642369771
-0.079150542
0.5456163801
0.1702525706
-0.004135855265
0.4546234708
0.1322693954
0.0641279211
0.6070991801
0.0917220043
0.1417458632
0.4113982522
0.0839656034