/*--------------------------------*- C++ -*----------------------------------*\
| =========                 |                                                 |
| \\      /  F ield         | OpenFOAM: The Open Source CFD Toolbox           |
|  \\    /   O peration     | Version:  5.x                                   |
|   \\  /    A nd           | Web:      www.OpenFOAM.org                      |
|    \\/     M anipulation  |                                                 |
\*---------------------------------------------------------------------------*/
FoamFile
{
    version     2.0;
    format      ascii;
    class       volScalarField;
    location    "3.2";
    object      rho;
}
// * * * * * * * * * * * * * * * * * * * * * * * * * * * * * * * * * * * * * //

dimensions      [1 -3 0 0 0 0 0];

internalField   nonuniform List<scalar> 
30538
(
1.28066008
1.289484745
1.289429118
1.289328978
1.289288886
1.289290371
1.289360221
1.289484808
1.289676182
1.289877141
1.290069666
1.290209329
1.290308149
1.290376233
1.290421979
1.290410518
1.290327524
1.290185504
1.290036381
1.291968058
1.280669131
1.289501263
1.289447274
1.289353358
1.2893167
1.289319781
1.289387956
1.289508079
1.289692897
1.289887252
1.290073396
1.290208261
1.290303959
1.290370235
1.290414995
1.290404718
1.290324527
1.290186568
1.290042236
1.291987571
1.28069484
1.289512612
1.289462193
1.289379235
1.289349187
1.289355379
1.289420802
1.289532583
1.289704626
1.289886553
1.290060043
1.290185841
1.290275263
1.29033786
1.290381014
1.290373064
1.290298424
1.290168344
1.29003172
1.29202495
1.280724363
1.289528355
1.289485685
1.289415809
1.289394571
1.289405435
1.289466874
1.289568618
1.289722742
1.289886808
1.290042235
1.290155206
1.290235271
1.290292746
1.290333805
1.290329566
1.290262834
1.290144025
1.290017908
1.29206031
1.280825247
1.289548121
1.289517884
1.289462303
1.289451087
1.289466832
1.28952441
1.289614897
1.289748057
1.28988952
1.290022899
1.290119448
1.290188192
1.290238935
1.290278163
1.290278245
1.290221738
1.290116046
1.290002063
1.292123306
1.280930519
1.289572486
1.289557238
1.289517204
1.289515558
1.289536318
1.289589271
1.289669641
1.289779547
1.289895756
1.290004362
1.290082158
1.290137632
1.290181822
1.290218186
1.290223265
1.29017751
1.290086172
1.289984867
1.292165824
1.281145877
1.289602213
1.289602291
1.289577418
1.2895852
1.289610549
1.289659668
1.289728737
1.289817193
1.289906347
1.289988811
1.29004609
1.29008856
1.290125226
1.290159723
1.290168938
1.290133997
1.290056205
1.289966991
1.292211206
1.28135802
1.289634589
1.289649852
1.289639139
1.289655271
1.289685145
1.28973034
1.289788933
1.289856159
1.289920488
1.289976313
1.290013198
1.29004267
1.290073086
1.290105701
1.290118988
1.290092866
1.290027122
1.28994863
1.292222262
1.281716293
1.289668301
1.289696252
1.289698029
1.289721576
1.289755353
1.28979846
1.289846833
1.289896333
1.289936436
1.289967279
1.289984839
1.290003069
1.290027783
1.290059857
1.290075916
1.290056344
1.289999594
1.289930136
1.29219973
1.282050051
1.289700267
1.289738369
1.289750635
1.289779737
1.289816854
1.28985807
1.289898488
1.289931728
1.289951728
1.289960279
1.289961162
1.28997018
1.28999103
1.290023723
1.290041293
1.29002528
1.289974316
1.289912063
1.292154583
1.282563183
1.289729788
1.289775329
1.289794491
1.289827976
1.289866663
1.289907434
1.28994068
1.289961325
1.289963845
1.289954367
1.289941812
1.289943696
1.28996241
1.289996593
1.290014414
1.289999251
1.289951535
1.289894742
1.292033066
1.283029709
1.289754725
1.289804499
1.289828574
1.289863416
1.289903114
1.289942222
1.289969954
1.289980324
1.289969825
1.289946262
1.289924071
1.289921354
1.289940062
1.289976383
1.289993992
1.289977755
1.289931473
1.289878684
1.291927046
1.283704282
1.28977627
1.289826395
1.28985378
1.289888254
1.289926506
1.289962449
1.289984401
1.289987192
1.289966926
1.289934052
1.289904982
1.289900124
1.289920338
1.289959431
1.289976912
1.28995876
1.289913055
1.289863266
1.2917016
1.284299761
1.289793138
1.289842441
1.289870195
1.289901814
1.28993602
1.289966779
1.289983567
1.289980703
1.28995448
1.289915689
1.289883022
1.289877724
1.289900392
1.289942279
1.289960031
1.289939957
1.289895012
1.289847937
1.291554119
1.28510911
1.289805297
1.289850817
1.289876459
1.289903207
1.289931292
1.289956375
1.289968793
1.289962753
1.289934084
1.28989295
1.28985973
1.289855678
1.289880588
1.289924205
1.289941962
1.289920376
1.289876952
1.289832326
1.291237237
1.28580039
1.289810202
1.289850347
1.289871836
1.289892432
1.289914131
1.2899333
1.289942429
1.289935185
1.289907535
1.289868494
1.289837441
1.289834809
1.289860875
1.289903982
1.289921506
1.289899278
1.289858813
1.28981719
1.291066941
1.286702984
1.289808729
1.289840574
1.289857028
1.289871878
1.289887463
1.289901317
1.289907866
1.289901346
1.289877448
1.289843765
1.289817398
1.2898169
1.289841597
1.289881171
1.289896944
1.289876009
1.28984018
1.289802941
1.290674749
1.287457249
1.289800404
1.289823224
1.289834026
1.289843871
1.289853554
1.289863272
1.289867275
1.289862442
1.289844202
1.289818819
1.289799334
1.289800472
1.289821574
1.289854014
1.289866759
1.289849541
1.289820739
1.289790699
1.290502028
1.28843869
1.289775802
1.289790828
1.289773301
1.289787529
1.289771786
1.289794474
1.289787548
1.289804015
1.2897913
1.289788889
1.289775803
1.289785087
1.289798697
1.289830686
1.289834085
1.289831017
1.289801842
1.289783579
1.290079349
1.290755806
1.284459899
1.287812893
1.281728549
1.285314371
1.280586757
1.284345805
1.281237192
1.285080883
1.283322919
1.287147133
1.286110756
1.289646342
1.288564333
1.291558393
1.289906384
1.292263788
1.289881108
1.291702571
1.289012902
1.278990505
1.28947789
1.289432224
1.2893423
1.289312556
1.289328877
1.2894077
1.289530228
1.289697128
1.289858093
1.290006677
1.290124898
1.290228121
1.290312305
1.290367778
1.290358237
1.290276696
1.290147164
1.290033711
1.29287602
1.278996961
1.28949669
1.289453985
1.289370047
1.28934348
1.289360261
1.289436508
1.289554199
1.289713795
1.28986817
1.290010046
1.290122493
1.290221008
1.290302122
1.290356356
1.29034841
1.290270398
1.290145721
1.290037077
1.292909561
1.279015063
1.289511732
1.289476251
1.289402419
1.289381755
1.289399714
1.289471424
1.289580254
1.289726037
1.289867501
1.28999648
1.290098029
1.290187703
1.290262799
1.290315097
1.290310421
1.29023935
1.290123743
1.290023307
1.292964691
1.279043754
1.289532456
1.289508978
1.289447776
1.2894346
1.289454691
1.289520463
1.289618265
1.289744676
1.289867706
1.289978374
1.290065185
1.290142708
1.290209759
1.290259779
1.290260131
1.290199011
1.290095634
1.290005497
1.293031644
1.279134772
1.289559152
1.289549966
1.289503047
1.289498412
1.289521357
1.289581183
1.289666153
1.289770324
1.289870011
1.289958665
1.290027647
1.290091247
1.290148908
1.290196709
1.290202911
1.290154023
1.290064375
1.289985412
1.293116345
1.279254005
1.289590577
1.289597261
1.289564931
1.289568819
1.289595249
1.28964935
1.289720802
1.289801295
1.289875398
1.289939438
1.289989251
1.290037754
1.290086165
1.290131128
1.29014366
1.290107413
1.290031791
1.289963925
1.293187956
1.279475004
1.289625386
1.28964786
1.289629757
1.289641733
1.289671936
1.289721372
1.289778824
1.289836957
1.289884385
1.28992336
1.28995312
1.289987177
1.290026321
1.290068741
1.290086554
1.290062049
1.289999478
1.289942099
1.293241795
1.279732439
1.28966046
1.2896976
1.289693122
1.289712337
1.28974636
1.289791669
1.28983661
1.289873167
1.289896304
1.289910596
1.289921377
1.289941758
1.289973216
1.290013039
1.290035036
1.290019896
1.289968648
1.289920544
1.293259439
1.280128683
1.28969349
1.28974249
1.289750837
1.289777073
1.289814281
1.289856909
1.289890682
1.289909351
1.289910195
1.289902451
1.289896346
1.289905335
1.289930271
1.289968147
1.289992033
1.289982982
1.289940474
1.289900363
1.29321821
1.280552489
1.289721205
1.289779709
1.289798981
1.289831629
1.289871767
1.289912077
1.289937269
1.28994097
1.289924187
1.28989824
1.289878748
1.289879215
1.289899781
1.289936493
1.289960059
1.289953711
1.289916882
1.289883074
1.293145416
1.281142746
1.289743239
1.289807081
1.289834647
1.289872952
1.289915733
1.289955159
1.289974124
1.289967485
1.2899367
1.2898973
1.2898681
1.289863497
1.289881919
1.289918133
1.289939546
1.289932772
1.289898961
1.289869512
1.292969703
1.281741884
1.289759496
1.289824342
1.289858541
1.289900601
1.289945745
1.289984209
1.289999086
1.289985067
1.289944925
1.289896507
1.289861791
1.289855415
1.289874333
1.289910698
1.289928999
1.289919455
1.289886402
1.289859486
1.292802282
1.282525869
1.289772239
1.289835158
1.289872659
1.289917102
1.289961934
1.289999035
1.290010536
1.289991925
1.289946206
1.289893491
1.289856446
1.289850759
1.289871929
1.289909017
1.289924006
1.289910254
1.289876944
1.289851553
1.292487851
1.283281048
1.28978123
1.289839926
1.289877994
1.289921045
1.28996365
1.289997926
1.290007345
1.28998677
1.289939422
1.289885636
1.289849162
1.289845822
1.289870146
1.289907775
1.289919926
1.289901458
1.289867915
1.289843773
1.292256716
1.284222378
1.289786397
1.289837798
1.289873651
1.289913315
1.289951647
1.289982153
1.289990532
1.289970882
1.289925431
1.289874028
1.289840298
1.289840291
1.289867395
1.28990479
1.289914305
1.289890962
1.289857775
1.289834741
1.29182837
1.285086082
1.289786879
1.289829649
1.289860983
1.289895477
1.289928469
1.289954751
1.289962345
1.289945112
1.289904706
1.2898591
1.289829805
1.28983324
1.289862013
1.28989766
1.289904744
1.28987772
1.289845765
1.289823948
1.291566441
1.286133006
1.289784679
1.289817292
1.28984271
1.289870863
1.289897702
1.289919223
1.289925951
1.289912259
1.289878923
1.289841387
1.289818356
1.289824666
1.289852207
1.289883711
1.289888431
1.289860912
1.289831509
1.289811268
1.291054279
1.287063497
1.289779751
1.289802058
1.289820405
1.289841416
1.289860812
1.289877393
1.289882432
1.289872859
1.289848178
1.289820251
1.289804288
1.28981189
1.289835303
1.28986059
1.289863137
1.289839564
1.289815058
1.28979795
1.2907914
1.28819384
1.289761486
1.289774033
1.289759278
1.289779087
1.289769939
1.289797085
1.289793514
1.289808544
1.289794103
1.289791653
1.289781193
1.289795756
1.289810712
1.289841681
1.289836762
1.289831242
1.289800638
1.289791017
1.290241561
1.290422316
1.284093444
1.286900661
1.280848528
1.283923199
1.279463388
1.28284581
1.280231974
1.283964101
1.282721957
1.286700406
1.285985677
1.289893655
1.288810006
1.292331165
1.290255051
1.293204588
1.290005373
1.292443472
1.288792862
1.277105591
1.289476287
1.289449109
1.289372009
1.289355317
1.289389866
1.28947884
1.289592337
1.28971257
1.289807274
1.28989204
1.289981478
1.290089795
1.290192174
1.29025164
1.290241303
1.290163208
1.290059619
1.290003109
1.295121818
1.277106461
1.289497835
1.289476859
1.289405183
1.289390769
1.289424008
1.289509133
1.289617453
1.289729986
1.289818493
1.289896383
1.289978708
1.290080031
1.290177165
1.290235626
1.290228065
1.290154498
1.290056498
1.29000509
1.295163791
1.277118566
1.289518566
1.289509272
1.289447369
1.289437419
1.28946871
1.289547029
1.28964524
1.289744197
1.289820012
1.289884624
1.28995366
1.290042424
1.290130017
1.290187104
1.290184652
1.290120069
1.290031963
1.289988134
1.2952725
1.277133894
1.289547823
1.289553795
1.289504829
1.289500849
1.289530981
1.289600335
1.28968522
1.289765318
1.289823123
1.289869
1.289920713
1.289992912
1.290068951
1.290124065
1.29012892
1.290076959
1.290001394
1.289966306
1.295356642
1.277230736
1.289583809
1.289606707
1.289571961
1.289575282
1.289605665
1.289666654
1.289734318
1.289793334
1.289828109
1.289852018
1.289883863
1.289938219
1.290001552
1.290055097
1.29006753
1.290030659
1.289967819
1.289941672
1.295513574
1.277339785
1.289623155
1.289663356
1.289643151
1.289654044
1.289686742
1.289739426
1.289789667
1.289824104
1.289834712
1.289835388
1.289846973
1.289882914
1.289934474
1.289985005
1.29000553
1.289982854
1.289932614
1.289914634
1.295588203
1.277600999
1.289663688
1.289719193
1.289713013
1.289732061
1.289767588
1.289814557
1.289846643
1.289858219
1.289843073
1.289821172
1.289812918
1.28983242
1.289872223
1.289920376
1.289946132
1.28993623
1.289897073
1.289886854
1.295681119
1.277863377
1.289700146
1.289769244
1.289777102
1.289803403
1.28984263
1.289883999
1.289901309
1.289889807
1.28985251
1.289809794
1.289784415
1.289788937
1.289819127
1.289863075
1.289892811
1.289891764
1.28986328
1.289859898
1.295667353
1.278353495
1.289730627
1.289810719
1.289831353
1.289865669
1.289907401
1.289945743
1.289949651
1.289920679
1.289863319
1.289803598
1.289763868
1.289757529
1.289779266
1.289819093
1.289848854
1.289853453
1.289833756
1.289836645
1.295587395
1.278801905
1.289751127
1.289839459
1.289871327
1.289913166
1.289957242
1.289992764
1.28998824
1.289945563
1.289874799
1.289802683
1.28975361
1.289739615
1.289755919
1.289791419
1.289818987
1.289825721
1.289812528
1.28982037
1.295428308
1.27955672
1.289764811
1.289853767
1.289895784
1.289943812
1.289990862
1.290024791
1.290015745
1.289965383
1.289886211
1.289807488
1.289753108
1.289736504
1.289750193
1.289781953
1.289805176
1.289810972
1.289801457
1.289811839
1.295120757
1.280199157
1.289770087
1.289857591
1.289906701
1.289960246
1.290009968
1.290043144
1.290031887
1.289978224
1.289895629
1.28981477
1.289760245
1.289744888
1.289759629
1.289788234
1.289806035
1.289808087
1.289799648
1.28981045
1.294818475
1.281211717
1.289773324
1.289854709
1.289907361
1.289963879
1.290014439
1.29004791
1.290036553
1.289983267
1.289900851
1.289822056
1.289770957
1.289760586
1.289778178
1.289803689
1.289815349
1.289811697
1.28980289
1.289812927
1.294283091
1.282026765
1.289771792
1.289845608
1.289897619
1.289954207
1.290004188
1.290037662
1.290028664
1.289978593
1.289900285
1.289826149
1.289781642
1.289777872
1.289798983
1.289821133
1.289826615
1.289816399
1.289806661
1.289815877
1.293882769
1.283245266
1.289768786
1.289830769
1.289879418
1.28993325
1.289980932
1.290013767
1.290008563
1.289965164
1.289893968
1.289827739
1.289791165
1.289794581
1.289818443
1.289837112
1.289836681
1.289819662
1.289808428
1.28981671
1.293172496
1.284179454
1.289762938
1.289812867
1.289856117
1.289904807
1.289948407
1.28997958
1.289978234
1.289942201
1.289881318
1.289825338
1.289797708
1.289807674
1.289833421
1.289848208
1.289842199
1.289819422
1.28980672
1.289814052
1.292728711
1.285526707
1.289759447
1.289795869
1.289832028
1.289873416
1.289910963
1.28993878
1.289940074
1.289912096
1.289862911
1.289819239
1.289800615
1.289814692
1.289839478
1.289849972
1.28983995
1.289814381
1.289801147
1.289806978
1.291908791
1.286529816
1.289757036
1.289781202
1.289808417
1.289840427
1.28986915
1.289891962
1.289893825
1.289873861
1.28983805
1.289806508
1.289796373
1.289811272
1.289832399
1.289838637
1.289827905
1.289804028
1.289792329
1.289796176
1.29146272
1.287966594
1.289739751
1.289759321
1.289735294
1.289775075
1.289758144
1.289804329
1.289792512
1.289810437
1.289787696
1.289785594
1.289778885
1.289798861
1.289815335
1.28983242
1.289821746
1.289810083
1.289790551
1.289789634
1.290592899
1.291225241
1.282389736
1.287101563
1.278603637
1.283643303
1.277248056
1.282471999
1.278722432
1.283881053
1.282260455
1.287106878
1.286628836
1.290799149
1.290368918
1.293503497
1.292255321
1.294130273
1.291699012
1.292619882
1.289805542
1.271750669
1.289455221
1.289497445
1.289432552
1.289426902
1.28946935
1.289553477
1.289641229
1.289697162
1.289725143
1.289762497
1.289830745
1.28993744
1.290042016
1.290083485
1.290066545
1.290003271
1.289931009
1.289940517
1.298801421
1.271722267
1.289480177
1.289529414
1.289469898
1.28946533
1.289505258
1.289584922
1.289666965
1.289718207
1.289740446
1.289771276
1.28983157
1.289928908
1.290026236
1.290067761
1.290054842
1.289996986
1.289930931
1.289944968
1.298907258
1.271659142
1.289506301
1.289569322
1.28951971
1.289517502
1.289553502
1.28962559
1.289696446
1.289738161
1.289748944
1.289767316
1.289812472
1.289893909
1.289978702
1.290020408
1.290014979
1.289967038
1.289911157
1.289929869
1.29910699
1.271612072
1.289542306
1.289622902
1.28958679
1.28958839
1.289620674
1.289683311
1.289739531
1.289765756
1.289760689
1.289760445
1.289786429
1.289848466
1.289919005
1.28996046
1.289964766
1.289929412
1.289885203
1.289909499
1.299348918
1.271609656
1.289584552
1.289683994
1.289663534
1.289670918
1.289701036
1.28975387
1.289792512
1.289800609
1.289775073
1.28975356
1.289756933
1.289798609
1.289854343
1.289895836
1.289909299
1.289887532
1.289854783
1.289884608
1.29962712
1.27170147
1.289628242
1.289745814
1.289742047
1.289757171
1.28978733
1.289830048
1.289850434
1.289835776
1.289789833
1.289745206
1.289727521
1.289748734
1.289790671
1.289830516
1.289851323
1.289842536
1.289820749
1.289855922
1.299853294
1.27193311
1.289669543
1.289802467
1.289815343
1.289839815
1.289872078
1.289906078
1.289907679
1.289872071
1.2898036
1.289739537
1.289701049
1.289703474
1.289731619
1.289768984
1.289793705
1.289796474
1.289784645
1.289825784
1.300006324
1.272308892
1.289704813
1.289849682
1.289878655
1.289912476
1.289948233
1.289974069
1.289958811
1.289901325
1.289814586
1.289732636
1.289678092
1.289664632
1.28968128
1.289713634
1.289740139
1.289751552
1.289748907
1.289796485
1.300035378
1.272902053
1.28973208
1.289884561
1.289927056
1.289970639
1.290009572
1.290030246
1.290000184
1.289926098
1.289823305
1.289728689
1.289662148
1.289637677
1.289644007
1.289670202
1.289695229
1.28971249
1.289718501
1.289771959
1.299878736
1.273637292
1.289749847
1.289902953
1.289957104
1.290008639
1.290050839
1.29006761
1.290028224
1.289942703
1.28983044
1.289727589
1.289655183
1.289624035
1.289623314
1.289643077
1.28966547
1.28968616
1.289699073
1.28975567
1.299592965
1.27465173
1.289760148
1.289907883
1.289969863
1.290028012
1.290072987
1.290087897
1.290043821
1.289953187
1.289836353
1.289731463
1.289658226
1.289625859
1.289621592
1.289635772
1.289654497
1.289675902
1.289692951
1.289749943
1.29904364
1.275746027
1.289764618
1.289902927
1.289969271
1.290032004
1.290078979
1.290093963
1.29004839
1.289956227
1.289840319
1.289738209
1.289669083
1.289639863
1.289636064
1.289645367
1.289659653
1.289679454
1.289698014
1.289751636
1.298457487
1.277145687
1.289767353
1.289890868
1.289957542
1.290021951
1.290070363
1.290086796
1.290042877
1.289953279
1.289841202
1.289745926
1.28968437
1.289662297
1.289661781
1.28966622
1.289674831
1.289691154
1.289709687
1.289758492
1.29754107
1.278521526
1.289765458
1.289871816
1.289935428
1.289998561
1.290047164
1.290066074
1.290027229
1.289943994
1.289838693
1.289752112
1.289701219
1.289688889
1.289692928
1.289692082
1.289694005
1.289706067
1.289723302
1.289766039
1.296759636
1.280208876
1.289762059
1.289847973
1.289905186
1.28996463
1.290011654
1.290033707
1.290002351
1.289929033
1.289833711
1.289758235
1.289719802
1.289718804
1.28972691
1.289720515
1.289715033
1.289721642
1.289736105
1.289773295
1.295580427
1.281742294
1.289756506
1.289822669
1.289871761
1.28992551
1.289969426
1.289993146
1.289969829
1.289907931
1.289826128
1.289763767
1.289738835
1.289748005
1.289758523
1.289746267
1.289733101
1.289734475
1.289745404
1.289777178
1.294739219
1.283592801
1.289754164
1.289800451
1.28984066
1.289886621
1.289925284
1.289948213
1.289931805
1.289882498
1.28981658
1.289769757
1.289756616
1.289771605
1.289781853
1.289764555
1.289746252
1.289743356
1.289751568
1.289777672
1.293406896
1.2851875
1.289753485
1.289782591
1.289812429
1.289848392
1.289878497
1.289898376
1.289886872
1.289850888
1.289803046
1.289771303
1.289767033
1.289783181
1.289792143
1.289773481
1.289754028
1.289748541
1.289754673
1.289774317
1.292594867
1.287133533
1.289732184
1.289747367
1.28971235
1.289748576
1.289729362
1.289774113
1.289763461
1.289779071
1.289758265
1.289761192
1.289761448
1.289788547
1.289797997
1.289802122
1.289780202
1.289781807
1.289768773
1.289777982
1.291197308
1.29014564
1.281023448
1.284091576
1.275515589
1.278963417
1.273378912
1.277383969
1.275333886
1.280147643
1.280333595
1.285736701
1.28646409
1.291908985
1.291585452
1.296515338
1.293870825
1.297703997
1.292442445
1.295285588
1.289143086
1.266918172
1.289443767
1.289570432
1.289528103
1.289526602
1.289558463
1.289609992
1.289637185
1.289636414
1.289622639
1.289637616
1.289697271
1.289792912
1.289875988
1.2898896
1.289866513
1.28983808
1.289799188
1.28985761
1.304669468
1.266845876
1.289469901
1.289603458
1.289565422
1.289564179
1.289593817
1.289641916
1.289667867
1.289664587
1.289645399
1.289653679
1.289705276
1.2897909
1.289865767
1.289879016
1.28985951
1.289836324
1.289804437
1.289869781
1.304835714
1.266702097
1.289498236
1.289645472
1.289615633
1.28961524
1.28964118
1.289684202
1.289705709
1.289696516
1.289666907
1.289663002
1.289699097
1.289768072
1.28982963
1.289842667
1.289828687
1.289814559
1.289793458
1.289863704
1.305262422
1.266547107
1.289537523
1.289701895
1.289684121
1.289685348
1.289707491
1.28974448
1.289757751
1.289737374
1.289694293
1.289672141
1.289688334
1.289736266
1.2897832
1.289795614
1.289790506
1.289785964
1.289777256
1.2898527
1.305649154
1.266460141
1.28958244
1.289765801
1.289763425
1.289768259
1.289786998
1.289817375
1.289818588
1.289784655
1.289723628
1.28968081
1.289674524
1.289701001
1.289732294
1.289744674
1.289746171
1.289751715
1.289755104
1.289835418
1.30624009
1.26645416
1.289627369
1.289828785
1.28984448
1.289855572
1.289872725
1.289893669
1.289881955
1.289830106
1.289753165
1.289690743
1.289660939
1.28966394
1.28967944
1.289689101
1.289697128
1.289711915
1.289727331
1.28981241
1.306584997
1.266700404
1.289668573
1.289884079
1.289918793
1.289939636
1.289956938
1.28996827
1.289940013
1.289872252
1.289777661
1.289700442
1.289648729
1.289629788
1.289628301
1.289634861
1.289646043
1.289669993
1.289695739
1.289785527
1.306934871
1.267051528
1.289699426
1.289927126
1.289979891
1.290011502
1.29003119
1.290031212
1.289988067
1.289902623
1.289796231
1.289705061
1.289639123
1.289600026
1.289583749
1.289583752
1.289597036
1.289627892
1.28966455
1.289757927
1.306947921
1.26783616
1.289723476
1.289954845
1.290022379
1.290065684
1.290087604
1.290079507
1.290022001
1.28992397
1.289806707
1.289706975
1.28962953
1.289577885
1.289549544
1.289543759
1.289556243
1.28959335
1.289638133
1.289734808
1.306711783
1.268654593
1.289736187
1.289965347
1.290044245
1.290096067
1.290121704
1.290107028
1.290040472
1.2899341
1.289810708
1.289705091
1.289623345
1.289564532
1.289529684
1.289517793
1.289530093
1.289571139
1.289621529
1.289717982
1.306212512
1.27007768
1.289747998
1.289963664
1.290047437
1.290106016
1.290134753
1.290116932
1.290045179
1.289934803
1.289807355
1.289701068
1.289619161
1.289561674
1.289524641
1.289509089
1.289520474
1.289564185
1.28961593
1.289709048
1.305249966
1.27135454
1.289753212
1.289952632
1.290036559
1.290098853
1.290130226
1.290111346
1.290037228
1.289925157
1.289798588
1.289695475
1.289619636
1.289567326
1.289532368
1.28951382
1.289523997
1.289568672
1.289619592
1.289705565
1.304262493
1.273370422
1.289762505
1.289933852
1.290013925
1.290077016
1.290110475
1.290093524
1.290018029
1.289906363
1.28978384
1.289688469
1.289622407
1.289579645
1.289549269
1.289528794
1.289536265
1.289581221
1.28963038
1.28970807
1.302643434
1.274990029
1.289762856
1.289908029
1.289980603
1.290041718
1.290076776
1.290064411
1.289990941
1.28988168
1.289765638
1.289680662
1.289629375
1.289599218
1.28957537
1.289551867
1.289555539
1.289599845
1.28964613
1.289713047
1.301355723
1.277430522
1.289765968
1.289877632
1.289940113
1.289996693
1.290032569
1.290026205
1.289958655
1.28985708
1.289749711
1.289678473
1.289644099
1.289629205
1.289611899
1.289583852
1.289581246
1.289622985
1.289664674
1.289720259
1.299304223
1.279231764
1.289761842
1.289846637
1.289898394
1.289948761
1.289983782
1.289982288
1.289924681
1.289834047
1.28974071
1.289684336
1.289667616
1.289666862
1.289654366
1.289619779
1.289609712
1.289647015
1.28968292
1.289726396
1.297941402
1.281874773
1.28976352
1.289819617
1.289860691
1.289903596
1.289935313
1.289937009
1.289890441
1.289816228
1.289739967
1.289700601
1.289696594
1.289704741
1.289694105
1.289655792
1.289639661
1.289670968
1.289700312
1.289733332
1.295694186
1.283739225
1.289761712
1.289796887
1.289826707
1.289861162
1.289885641
1.289889166
1.289853886
1.289799209
1.289744582
1.289718944
1.289723002
1.289733666
1.289725972
1.289689045
1.289670319
1.289693344
1.289715611
1.289738951
1.294395566
1.286474503
1.289714702
1.289752643
1.289663484
1.28974297
1.28966912
1.289752745
1.289707898
1.289743723
1.289718146
1.289731863
1.28973933
1.28976518
1.289770383
1.289757364
1.289740674
1.289751078
1.289751503
1.289756973
1.2921014
1.291655693
1.277018599
1.284037552
1.269933614
1.277611178
1.267767246
1.275783642
1.271555808
1.279440209
1.279158677
1.286420546
1.287995493
1.294071771
1.295520616
1.299653354
1.299133534
1.300350496
1.296823417
1.295928625
1.291650481
1.256736061
1.289339092
1.289654128
1.289641034
1.289632999
1.289636553
1.289634389
1.28960356
1.289563676
1.289537645
1.289564652
1.289630737
1.289699108
1.289730827
1.289714963
1.289698068
1.289720223
1.289718505
1.289810164
1.313774901
1.256547104
1.289363016
1.289685154
1.289675554
1.289668334
1.289671579
1.289672385
1.289644993
1.289603041
1.289571589
1.289588664
1.289645517
1.289705406
1.289731709
1.289713462
1.289694803
1.2897185
1.289724519
1.289829132
1.314206396
1.256106906
1.289385382
1.289723652
1.289720367
1.289715342
1.289718945
1.289722968
1.289696404
1.289649966
1.289608918
1.28961198
1.289649543
1.289693574
1.289710052
1.289688721
1.289669381
1.289696756
1.289716111
1.289826552
1.315065454
1.255684534
1.289418362
1.289775798
1.289781776
1.289780536
1.289784975
1.28978965
1.289760024
1.289707169
1.289656131
1.289639587
1.289653605
1.289674626
1.28967781
1.28965421
1.289634416
1.289667222
1.289704025
1.289819695
1.316119407
1.255182279
1.289453979
1.289834839
1.289853439
1.289857639
1.289862645
1.289865649
1.28982967
1.289768932
1.289701773
1.289667436
1.289652943
1.289648953
1.289635526
1.289609608
1.289592239
1.289631893
1.289686874
1.289805912
1.317339669
1.254976695
1.289492678
1.28989296
1.289927065
1.289939155
1.289944044
1.289941897
1.289898448
1.289824954
1.289747277
1.28969471
1.289652642
1.289620776
1.289589962
1.289559891
1.289545422
1.289592042
1.289664922
1.289786104
1.318340664
1.254968462
1.289525918
1.28994309
1.289995417
1.290017371
1.290022218
1.290012125
1.289959365
1.289879782
1.289789916
1.290035375
1.28965223
1.289593477
1.289544656
1.28950962
1.289496883
1.289550827
1.289640606
1.289762842
1.319104815
1.255423949
1.289553654
1.28998059
1.290050562
1.290083873
1.290087796
1.290066978
1.290004138
1.289914488
1.289820714
1.289744668
1.289653251
1.289568177
1.289503807
1.289463979
1.289453175
1.289514199
1.289618944
1.289741134
1.319358957
1.256327282
1.289577346
1.290001734
1.290087044
1.290130604
1.290134287
1.290103183
1.290031429
1.289936752
1.289836304
1.289748396
1.289648009
1.289549488
1.289473406
1.289430116
1.289421871
1.28948982
1.289603665
1.289723431
1.31902692
1.257684373
1.289599383
1.290008523
1.290103411
1.290154326
1.29015877
1.290119873
1.290041739
1.289941647
1.289837106
1.289742092
1.28964129
1.289537969
1.289456404
1.28941039
1.289405895
1.289479709
1.289594744
1.289707455
1.318148172
1.259652609
1.289625845
1.290003857
1.290102244
1.290156857
1.290162381
1.290118844
1.290036727
1.289932538
1.289824705
1.289727874
1.289630614
1.289534108
1.289451926
1.289403591
1.289402825
1.289480951
1.289590808
1.289696763
1.316488607
1.261886436
1.289651911
1.289989921
1.290086102
1.290141583
1.290147817
1.290101294
1.290016639
1.289908628
1.289798876
1.289706699
1.28961982
1.289533931
1.289454442
1.289405378
1.289408676
1.289489236
1.289590845
1.289687382
1.314530114
1.264794439
1.289682058
1.289967478
1.290056694
1.290110954
1.290118506
1.290070399
1.289981204
1.289871153
1.289762254
1.289679906
1.28960684
1.289535457
1.28946193
1.28941495
1.289422292
1.289504267
1.289596135
1.289685801
1.311720728
1.267633139
1.289703617
1.289937018
1.290015521
1.290066778
1.290077472
1.290031269
1.289937044
1.289823406
1.289718324
1.289649638
1.289595562
1.289541297
1.289480199
1.289436622
1.289445116
1.289527876
1.28960883
1.289685009
1.30914256
1.271145054
1.289725503
1.289901278
1.289967479
1.290015079
1.290029649
1.289988619
1.28989244
1.289778975
1.289680794
1.289628586
1.289597969
1.289562432
1.28951431
1.28947147
1.289476954
1.289558967
1.289628875
1.289691152
1.305674833
1.274207382
1.289736543
1.289865081
1.289919498
1.28996214
1.289979674
1.289945224
1.289854176
1.289747236
1.289661596
1.289626654
1.289618078
1.289599587
1.289561499
1.289516545
1.289516817
1.289594464
1.289652996
1.289696907
1.30312111
1.277952138
1.289750716
1.289833743
1.289877777
1.28991431
1.289932201
1.289903952
1.289824999
1.289733445
1.289665658
1.289647392
1.289653015
1.289646076
1.289614452
1.289568313
1.289563921
1.289632251
1.289678679
1.289709503
1.299458531
1.281016483
1.289756163
1.28980716
1.289840382
1.289870935
1.289883028
1.289862458
1.289801102
1.289733804
1.289686282
1.289677943
1.289689703
1.289689509
1.28966614
1.289623893
1.289616545
1.289669677
1.289702324
1.289720196
1.297205809
1.284815821
1.289688587
1.289722583
1.289580891
1.289649767
1.289540694
1.289618462
1.289589481
1.289650339
1.289661656
1.289700492
1.289720009
1.289748446
1.289747586
1.289730339
1.289721691
1.289739537
1.289748849
1.289741204
1.293546742
1.289816436
1.273941069
1.278324316
1.263264248
1.268288868
1.259466172
1.265362305
1.264603504
1.272171047
1.275620992
1.284136248
1.288324474
1.296988119
1.299056136
1.306812437
1.303753604
1.308698713
1.299198993
1.301848687
1.290637739
1.246781296
1.289183025
1.289730114
1.289744403
1.289726314
1.289704914
1.289653955
1.289576731
1.289507414
1.289480678
1.289527054
1.289589402
1.289613657
1.289588364
1.289551725
1.289546084
1.289633102
1.28970666
1.289815309
1.326105964
1.246337763
1.289200005
1.289757905
1.289777031
1.289762643
1.289741917
1.289697289
1.289623377
1.289554958
1.289523357
1.289553308
1.289601666
1.28962296
1.289596634
1.289556061
1.289548096
1.289627285
1.289703977
1.289829752
1.326859833
1.245479502
1.289206915
1.289789942
1.289816934
1.289809659
1.28979147
1.289753653
1.28968284
1.289615972
1.289575581
1.28958204