/*--------------------------------*- C++ -*----------------------------------*\
| =========                 |                                                 |
| \\      /  F ield         | OpenFOAM: The Open Source CFD Toolbox           |
|  \\    /   O peration     | Version:  5.x                                   |
|   \\  /    A nd           | Web:      www.OpenFOAM.org                      |
|    \\/     M anipulation  |                                                 |
\*---------------------------------------------------------------------------*/
FoamFile
{
    version     2.0;
    format      ascii;
    class       volVectorField;
    location    "3.2";
    object      U;
}
// * * * * * * * * * * * * * * * * * * * * * * * * * * * * * * * * * * * * * //

dimensions      [0 1 -1 0 0 0 0];

internalField   nonuniform List<vector> 
30538
(
(0.03802985321 0.000552260227 -0.0009708405513)
(0.03723213539 0.001007097793 -0.001174773427)
(0.033737943 0.002184117828 -0.0009317024213)
(0.04496220331 0.001777897219 -0.0005050126679)
(0.0329692848 0.001883211059 0.0006201390422)
(0.02799408128 0.0005690950559 -0.000310254534)
(-0.006416779967 0.0002352819397 0.000548552826)
(-0.03129740333 -0.001060050266 -0.001488164904)
(-0.0727055307 -0.0008495116947 -0.0003431653487)
(-0.08682140237 -0.001638417945 -0.0006744875942)
(-0.09665074694 -0.0008658039714 0.002967622844)
(-0.07398164023 -0.001736049117 0.005294843773)
(-0.05268416093 -0.001231394438 0.007887337828)
(-0.01907388313 -0.002184534732 0.008346982457)
(-0.001003815031 -0.001798035198 0.006110029041)
(0.01964835021 -0.001976791458 0.006269574637)
(0.03275357301 -0.001168291988 0.00454675227)
(0.05145999633 -0.0009131838204 0.00600430137)
(0.05959189301 -0.0004032231898 0.002415776113)
(0.06322984196 -0.0003139370451 0.002630610712)
(0.03918051357 0.001529564125 -0.0008701105477)
(0.03835488101 0.002780338274 -0.001025732648)
(0.03428355292 0.005961782423 -0.0006913804299)
(0.04475744403 0.00486792174 -0.0003093453395)
(0.03211934542 0.004541274102 0.0007803433833)
(0.02682077322 0.001337997346 -0.0001603270511)
(-0.007574211526 -0.0008089878496 0.0006768269006)
(-0.03205695934 -0.003279579241 -0.001348724576)
(-0.07311181841 -0.004578791316 -0.0003016797379)
(-0.08680549118 -0.004870011198 -0.0006307816694)
(-0.09672664454 -0.004961911495 0.002825553657)
(-0.07424643912 -0.004940085842 0.005198663835)
(-0.05300591456 -0.005363820187 0.007674840445)
(-0.0194709708 -0.005987251467 0.008315628737)
(-0.000855627244 -0.006004668273 0.006140640333)
(0.02009186032 -0.005248479215 0.006445051421)
(0.03350389681 -0.003579104214 0.004633416717)
(0.0520028176 -0.002316022993 0.00611555663)
(0.0600541669 -0.001235671523 0.002450288533)
(0.06366105183 -0.0007585082566 0.002683431702)
(0.04122828865 0.002659883078 -0.0006784970961)
(0.0403060052 0.004114702493 -0.0007629459147)
(0.03523382869 0.009563515066 -0.000266486659)
(0.04395631283 0.007255770684 6.052073568e-05)
(0.03048152124 0.007205699369 0.001170964855)
(0.024213451 0.001717982875 0.0001493251378)
(-0.009680269171 -0.0005371081685 0.001122340977)
(-0.03396141663 -0.005086946902 -0.00108893842)
(-0.07383973784 -0.005498061186 0.0001235724111)
(-0.08703482019 -0.00729269898 -0.0005302052791)
(-0.09672124431 -0.005562961779 0.003001994668)
(-0.07426539998 -0.006889847753 0.005061648378)
(-0.05343188461 -0.005955851838 0.00773333695)
(-0.01953169699 -0.007960781066 0.008304548413)
(-0.0004909150769 -0.006945498983 0.006514772065)
(0.02136678891 -0.006592077585 0.006763427434)
(0.03484494 -0.003721901429 0.004967529579)
(0.05310907756 -0.002535085769 0.006276923874)
(0.06076926509 -0.001113393907 0.00258980121)
(0.06441760433 -0.001017628766 0.00272395303)
(0.04417245629 0.003669408786 -0.0005082574124)
(0.0431362942 0.004856735964 -0.000461077489)
(0.03654286549 0.01171953398 4.653611673e-05)
(0.04309831213 0.008414695799 0.0004075520203)
(0.02822258667 0.008101680075 0.001453111889)
(0.02134038899 0.00125472795 0.0004769188858)
(-0.01239443666 -0.001639830015 0.001397851236)
(-0.0355719744 -0.006820948388 -0.0008161967981)
(-0.07468359793 -0.00753828822 0.000138472242)
(-0.08678137054 -0.008974106916 -0.0004302786305)
(-0.09646451015 -0.007285511811 0.002608135862)
(-0.07453001451 -0.007519871831 0.004853385149)
(-0.05376357116 -0.006562709931 0.007212295948)
(-0.02016408292 -0.007834491337 0.008256850448)
(0.000100221281 -0.006614098796 0.006512350133)
(0.02237107459 -0.005760019924 0.007090711132)
(0.03638479083 -0.002557832714 0.005040673736)
(0.05382786852 -0.001523086299 0.006400541435)
(0.06125238461 -0.0004410595763 0.002552338508)
(0.06485206238 -0.000940181646 0.002797070659)
(0.04746258009 0.004661865987 -0.0003686096444)
(0.04588227898 0.004931005005 -0.0001977543126)
(0.03778385822 0.01287012413 0.000328923749)
(0.04139783783 0.008220728294 0.0007079063044)
(0.02544269942 0.008489054423 0.001904571446)
(0.0173202678 0.0001375120279 0.0008932585111)
(-0.01539864032 -0.001744866699 0.002059462515)
(-0.03813774912 -0.008227305554 -0.0005358434064)
(-0.0753669464 -0.007239921124 0.0007136465987)
(-0.08679647202 -0.009584176691 -0.0003114735993)
(-0.0957137229 -0.005773702181 0.002877426481)
(-0.07376562973 -0.006573097629 0.004686032859)
(-0.05365402622 -0.003796901024 0.007375957441)
(-0.01956685108 -0.005513426509 0.0082374841)
(0.0009620840397 -0.003212808689 0.006989369672)
(0.02423407053 -0.002902134237 0.007351338885)
(0.03786122376 0.0005374735483 0.005310170311)
(0.05458863124 0.0005629420811 0.006374716171)
(0.06133518217 0.001022954768 0.002578703455)
(0.06502826123 -0.0005962443771 0.002747452728)
(0.05113515948 0.005088740756 -0.0003622313607)
(0.0488296456 0.004095355248 -0.0001709778113)
(0.03890082366 0.01225170633 0.0002761804519)
(0.03999523757 0.006524619447 0.0007372472843)
(0.02252297017 0.007208482334 0.001946060781)
(0.01410457403 -0.001692219353 0.001133428813)
(-0.01831174086 -0.002799631661 0.002140088133)
(-0.03946047415 -0.009539770208 -0.0003762710202)
(-0.07564363478 -0.00752447141 0.0004769563196)
(-0.08569907325 -0.009421775232 -0.0002321914345)
(-0.09434660078 -0.004549827587 0.002355496967)
(-0.07314944174 -0.004349079171 0.004515430419)
(-0.05301667419 -0.0004438633956 0.006718392631)
(-0.01975652906 -0.00144779563 0.008136400044)
(0.001922495107 0.001398586636 0.006746685274)
(0.02502829804 0.001398995615 0.007422581948)
(0.03885984019 0.004441125025 0.005017800051)
(0.05415320471 0.00329241896 0.006174969446)
(0.060589385 0.002940421527 0.002268834782)
(0.06417222138 -6.00430107e-05 0.002700821111)
(0.05410836713 0.005213939603 -0.0003708299191)
(0.05084587722 0.001976771994 -0.0003237756084)
(0.03953020768 0.01050473476 0.0001261167492)
(0.03781695262 0.003409772196 0.0006067210244)
(0.01963517396 0.005394383113 0.002073584721)
(0.01025474622 -0.004113968684 0.00126457034)
(-0.02093702315 -0.003515441347 0.002536726628)
(-0.04147157599 -0.01063998496 -0.0002822439023)
(-0.07527381458 -0.00677585434 0.0009062053223)
(-0.08466445787 -0.008571807964 -0.0001563659156)
(-0.09213901716 -0.001659947337 0.002681201268)
(-0.0708839198 -0.0009701640986 0.004465478153)
(-0.05161584886 0.004759734831 0.006982451682)
(-0.01828383303 0.004114052645 0.00804476631)
(0.002944551673 0.007541035848 0.007041646101)
(0.02640293004 0.006745053722 0.007326199485)
(0.03922866641 0.0089845438 0.004961960881)
(0.05350891062 0.006489376754 0.005795031277)
(0.05911174503 0.005124390231 0.002082922352)
(0.0626260263 0.0007009992302 0.002501086228)
(0.05636316802 0.004639711682 -0.0005146116152)
(0.0524725714 -0.001172686789 -0.0006381450166)
(0.03995629969 0.007021929317 -0.0003854652218)
(0.03637538579 -0.0009837891259 0.0001668853648)
(0.0172052984 0.002216105695 0.001578721173)
(0.007809572451 -0.007224891691 0.001011877294)
(-0.02291606318 -0.005002212903 0.002048231729)
(-0.04175334234 -0.01179485852 -0.0004295435557)
(-0.0741656536 -0.006088414071 0.0003855553301)
(-0.08206629444 -0.007336691923 -0.0001236159389)
(-0.0889867269 0.001721745053 0.002287865138)
(-0.06863559666 0.003259017602 0.004466450752)
(-0.04944361088 0.01105412272 0.00640514826)
(-0.01781182668 0.01089894456 0.007879532206)
(0.003758577162 0.01487658848 0.006539550461)
(0.02606018447 0.01296534506 0.007074494747)
(0.03869668567 0.01431186412 0.00440508272)
(0.05139404111 0.01010098695 0.005389553041)
(0.05662724115 0.007829081533 0.001641667021)
(0.05970827986 0.001501180629 0.002370786201)
(0.05672338398 0.003914605036 -0.000637935101)
(0.05242295005 -0.005273708585 -0.0009755698724)
(0.03972506443 0.002817522934 -0.0008099232153)
(0.0344182884 -0.006536092725 -0.0003486141484)
(0.01522529747 -0.001582022951 0.001178706519)
(0.005159494263 -0.01110717268 0.0005637490434)
(-0.02415489423 -0.006896969474 0.001851891332)
(-0.0422167608 -0.0132590083 -0.0007106269176)
(-0.07210511565 -0.005822231402 0.0005983361863)
(-0.07913640043 -0.006096517361 -5.67413855e-05)
(-0.0846684196 0.004672154023 0.002882629814)
(-0.06431614735 0.007750407293 0.004631735944)
(-0.04624799256 0.01725571812 0.006820764703)
(-0.01560671744 0.01815793792 0.007737923159)
(0.004383331141 0.02237744209 0.006634090755)
(0.02601626256 0.01968488611 0.006738950273)
(0.03720442215 0.01973408384 0.004254115643)
(0.04888051331 0.01412228611 0.004961825018)
(0.05313919709 0.01055932194 0.001470240893)
(0.05570438124 0.002527842941 0.002127719345)
(0.0556030002 0.002813100724 -0.0008004345105)
(0.05157540345 -0.009527966581 -0.001318221203)
(0.03914823237 -0.002265111841 -0.001425733334)
(0.03327428998 -0.01269848965 -0.001042645572)
(0.01397770913 -0.006398511567 0.000194380146)
(0.004071106464 -0.0155868295 -0.000271158473)
(-0.02442776207 -0.009403607779 0.0007202956709)
(-0.04096235267 -0.01513190783 -0.001284739383)
(-0.06908087795 -0.005576842748 -0.0001457849211)
(-0.07464878559 -0.005091261851 -2.675821533e-05)
(-0.07923021002 0.008239794124 0.002661283155)
(-0.05977754607 0.01218596311 0.004823898051)
(-0.0421285438 0.02398380092 0.006384494913)
(-0.01422536344 0.02533197334 0.007497755818)
(0.004819008053 0.03031449577 0.005967866727)
(0.02420405251 0.02642741792 0.006326925859)
(0.03475276945 0.02557029811 0.003743431716)
(0.04484945896 0.01814448668 0.004653633252)
(0.04851513543 0.01362231047 0.001156406961)
(0.05014579368 0.003396019068 0.002019272434)
(0.05221598957 0.002068932715 -0.0008944514098)
(0.04870038107 -0.01365817531 -0.001516346769)
(0.03758890632 -0.00684887785 -0.001798802285)
(0.0315114072 -0.01890198596 -0.001613993631)
(0.01318635913 -0.01112425433 -0.0005412489133)
(0.003059944464 -0.0204321195 -0.001158229225)
(-0.0238231091 -0.0122843316 -2.049111663e-05)
(-0.03947004082 -0.01748349909 -0.001893946687)
(-0.06498971943 -0.006350391086 -0.0001386875475)
(-0.06938211173 -0.004740695096 5.433787135e-05)
(-0.0724883949 0.009927165787 0.003351869259)
(-0.05323662305 0.015508539 0.005116028397)
(-0.03700166855 0.02838571609 0.00682458793)
(-0.01117205804 0.03091453424 0.007286990659)
(0.005143372891 0.03603907405 0.005894371567)
(0.0226630978 0.03179773383 0.005906914526)
(0.03132894101 0.0297915494 0.003724340714)
(0.04036619346 0.02140733835 0.004414312656)
(0.04277786879 0.01579959978 0.001176759593)
(0.0433824289 0.004252259185 0.001816671805)
(0.04767029803 0.001289103695 -0.0009630525315)
(0.04513248795 -0.01685654535 -0.001644655228)
(0.03556385165 -0.01078667259 -0.002154182158)
(0.03026683239 -0.02423208545 -0.002194655981)
(0.01289762018 -0.01572178542 -0.001578015569)
(0.003275881038 -0.0251571417 -0.002209798952)
(-0.0223299508 -0.01539596042 -0.001429573861)
(-0.03672077361 -0.02006409044 -0.002669482597)
(-0.06007292612 -0.006903936811 -0.0009823913017)
(-0.06315368484 -0.004713541011 3.192798174e-05)
(-0.06495242219 0.01197203974 0.003153843576)
(-0.04679082695 0.01788671988 0.005299483894)
(-0.03128710518 0.03228475338 0.006430155605)
(-0.008864968874 0.03480906598 0.006943350318)
(0.005427780486 0.04054364986 0.005123900102)
(0.01978235998 0.03536442956 0.005405763233)
(0.02738841516 0.03295044022 0.003352148444)
(0.03489344661 0.02335243357 0.004274312383)
(0.03643919453 0.01747020614 0.001025303372)
(0.03570306792 0.004554406459 0.001754686352)
(0.04147428634 0.001109174302 -0.0009509292429)
(0.04002723211 -0.01933903136 -0.001582936041)
(0.03250238528 -0.01323474174 -0.002235559422)
(0.02803299589 -0.0286484144 -0.002508247871)
(0.01253329542 -0.01944703096 -0.002201628881)
(0.003326179021 -0.02959185955 -0.003006651134)
(-0.02020556933 -0.01850061428 -0.002190622793)
(-0.03342990023 -0.02266368446 -0.003194506553)
(-0.05414734876 -0.00819225247 -0.001026558991)
(-0.05604896875 -0.005070135897 0.0001406497243)
(-0.05655569531 0.01225189128 0.003713448814)
(-0.0389492751 0.01894247586 0.005529956585)
(-0.0250962521 0.03332699225 0.00671680048)
(-0.005382160876 0.03623949895 0.006611989998)
(0.005518630695 0.04153580289 0.004896635841)
(0.01729025383 0.03621576845 0.00490459718)
(0.02281821606 0.03314254025 0.003423218993)
(0.02937073552 0.02341501204 0.004143153314)
(0.0295324174 0.01736005966 0.001173996481)
(0.02756971053 0.00453964104 0.00157545437)
(0.03503500164 0.001011542078 -0.0008858871197)
(0.03487263153 -0.02079355615 -0.001525313304)
(0.02910220762 -0.01492469815 -0.00234239293)
(0.02588697305 -0.03174103597 -0.002813580911)
(0.01223416371 -0.02235536832 -0.002933351096)
(0.003974233725 -0.03306079315 -0.003744256033)
(-0.01741454444 -0.02100682785 -0.003266733848)
(-0.02940047906 -0.02482112947 -0.003741211838)
(-0.04764823987 -0.008858058479 -0.00168382528)
(-0.04871671697 -0.00546401884 8.553799045e-05)
(-0.04802326506 0.01291678763 0.003416845054)
(-0.03196977272 0.01910997934 0.005504007158)
(-0.01912463568 0.03378172163 0.006207248366)
(-0.003105823498 0.03571399608 0.006095050074)
(0.00539006727 0.0409829119 0.004071559734)
(0.01385212419 0.03479942889 0.004296135082)
(0.01832542365 0.03194592972 0.003073934207)
(0.02369979155 0.0218010487 0.004021228116)
(0.02314144315 0.01642455742 0.001081175326)
(0.01999596802 0.00381909611 0.001539180845)
(0.02773364496 0.001385573541 -0.0007900385908)
(0.02866179937 -0.02140852447 -0.001261455933)
(0.0248698085 -0.01541471782 -0.0021607771)
(0.0227882545 -0.03348646543 -0.002712732827)
(0.01160670466 -0.02398368244 -0.003082469734)
(0.004302361444 -0.03553901084 -0.003945550074)
(-0.01436571878 -0.02297173959 -0.003496745493)
(-0.02481503312 -0.02677834137 -0.003783852398)
(-0.04047765225 -0.01007711842 -0.001549619275)
(-0.04067636535 -0.006311169741 0.0002379323922)
(-0.03922532623 0.01211987581 0.00369097544)
(-0.02427716119 0.01795750557 0.005459091576)
(-0.01342546236 0.03157005539 0.006164070001)
(-0.0003324707244 0.03270203799 0.005536420783)
(0.004853065215 0.03716123894 0.003687004727)
(0.01090838018 0.03093612849 0.003643544373)
(0.01362041589 0.02819199443 0.00304020844)
(0.01837397098 0.01869098913 0.003775374326)
(0.01687820284 0.01395006466 0.00123706045)
(0.01303540092 0.002863389742 0.001363181645)
(0.02112696714 0.002065523977 -0.0006003577497)
(0.02290759895 -0.02098506429 -0.001034483401)
(0.02066347952 -0.01448956012 -0.001849939599)
(0.01983135039 -0.03363805956 -0.002537066257)
(0.01079057658 -0.02413752153 -0.00307949507)
(0.004709325515 -0.03686070538 -0.003973997753)
(-0.01120851585 -0.02397900496 -0.003717617926)
(-0.02026089573 -0.02830898925 -0.00374742576)
(-0.0331943887 -0.01093001063 -0.001788117696)
(-0.03305022318 -0.007494604688 0.000164507735)
(-0.03090176399 0.01120981879 0.003180452569)
(-0.01829372344 0.01567483615 0.004993275287)
(-0.00875910225 0.02849271835 0.00534482225)
(0.0008165691874 0.02773362821 0.004729196527)
(0.004127717105 0.03206721004 0.002739585975)
(0.007514707605 0.02548628699 0.002855067619)
(0.009663318001 0.02388556872 0.002503001577)
(0.01361312896 0.01472265413 0.003431602503)
(0.01202876088 0.01122387447 0.001073896798)
(0.007868915814 0.001483092762 0.001312005627)
(0.01461662894 0.002942020587 -0.0004573595221)
(0.01687313764 -0.01960898064 -0.0006157642332)
(0.01602422525 -0.01286413638 -0.00138617355)
(0.0159738393 -0.0325878456 -0.00192696123)
(0.009341221209 -0.02383939021 -0.002588773149)
(0.004429221457 -0.03745919435 -0.003358411844)
(-0.008316058016 -0.02505070146 -0.003207319822)
(-0.01557117385 -0.02950267942 -0.003135170672)
(-0.02577481872 -0.01206128527 -0.001419688347)
(-0.02505414788 -0.008550082314 0.0002916451266)
(-0.02288535642 0.009409343483 0.002971967268)
(-0.01211382512 0.0128460922 0.004405730262)
(-0.004939126038 0.02390928333 0.004715723715)
(0.002174816357 0.02168794814 0.003856567668)
(0.00325437709 0.02535236997 0.002224185235)
(0.005124444892 0.01920193503 0.002065190151)
(0.00600646821 0.01868582807 0.002199186589)
(0.009403698225 0.01059446319 0.002866087335)
(0.007613126448 0.008042110606 0.001127492321)
(0.003785969993 0.0002489605666 0.001046243071)
(0.009600363408 0.004174599848 -0.0002150233036)
(0.01165457096 -0.01815527117 -0.0004141322335)
(0.01158771539 -0.01022917702 -0.0008913711624)
(0.01208957259 -0.03129676485 -0.001449511228)
(0.007362517935 -0.02244789933 -0.001957188294)
(0.00386284599 -0.03792856949 -0.002672290474)
(-0.005587709809 -0.0252924296 -0.002563811966)
(-0.01106853317 -0.03080467747 -0.00251946615)
(-0.0183906474 -0.01282166702 -0.001243520347)
(-0.01790094016 -0.01001183525 0.0001332476669)
(-0.01581579753 0.007837763717 0.002133992554)
(-0.008074183475 0.009539554834 0.003320950943)
(-0.002529565491 0.01930831247 0.003400935489)
(0.001824912744 0.0152311386 0.002764162327)
(0.002365777725 0.01883478077 0.001272070775)
(0.002798683013 0.01276634296 0.001280401659)
(0.003573797442 0.01400940343 0.00139895418)
(0.006064603861 0.006692995912 0.002174749913)
(0.004817651263 0.005359147219 0.0007801350919)
(0.001729137838 -0.0009387824483 0.0008990756392)
(0.004940320187 0.004971162794 -0.0001487167364)
(0.006552782632 -0.01620936794 -9.919945428e-05)
(0.006746542485 -0.00834735511 -0.0004848655803)
(0.007283155895 -0.02921148064 -0.0007279786489)
(0.004628105084 -0.02174929649 -0.001176807415)
(0.002421411413 -0.03717348254 -0.001568929501)
(-0.003254483955 -0.02574052877 -0.001602481548)
(-0.006688436521 -0.03064279443 -0.001505876935)
(-0.01101293246 -0.01313181185 -0.0007315923361)
(-0.01042359517 -0.009989287857 0.0001726292761)
(-0.00908618526 0.007007651672 0.001422069866)
(-0.004047203376 0.007844242843 0.002111184076)
(-0.0009646676794 0.01617131491 0.002210569706)
(0.001797924659 0.0109582993 0.001656348186)
(0.001494268729 0.0139591169 0.0008592616898)
(0.001720247578 0.008340066306 0.0006911085971)
(0.001746768039 0.01048814267 0.0009820704069)
(0.003323966249 0.004131705922 0.001318078271)
(0.002363664972 0.003469086249 0.0006475571422)
(0.0004323235108 -0.001564115679 0.0005116033784)
(0.001863577123 0.00565030887 1.962549586e-05)
(0.002335308675 -0.01520672269 -9.502122742e-05)
(0.002607524079 -0.006564915487 -0.0001106668166)
(0.002784023886 -0.02811238656 -0.0003384207182)
(0.001826928655 -0.02049372828 -0.0003973229826)
(0.001067630956 -0.0371135379 -0.0006194158788)
(-0.001057284989 -0.02548247815 -0.0005648677214)
(-0.002285506864 -0.03118725876 -0.0005940984151)
(-0.003930490285 -0.01311745248 -0.0002905178293)
(-0.003776881782 -0.01028035525 -2.769921142e-05)
(-0.003247982796 0.006811143388 0.000385800784)
(-0.001560587327 0.00723665119 0.0006297930059)
(-0.0002543639711 0.01492671443 0.000558036442)
(0.0003354552422 0.00922862651 0.0004499147678)
(0.0005528967228 0.01216934375 2.981850813e-05)
(0.0003241918544 0.006463972034 0.000117759823)
(0.0005129982593 0.009222750913 0.0001160272616)
(0.0009639944949 0.002996957116 0.0004456517386)
(0.0007539299628 0.00276517065 0.0001037551463)
(0.0001498170375 -0.001833026379 0.0002543267148)
(0.03539072908 0.0007447080914 -0.006884409852)
(0.03715576922 0.001286746719 0.002292290161)
(0.03478466327 0.002624591816 -0.006838395037)
(0.04708214277 0.002135210591 0.003925042906)
(0.03325143989 0.002173738312 -0.004745619552)
(0.02787483423 0.0008431194867 0.002324212684)
(-0.00805894841 0.0004754198932 -0.007130960783)
(-0.0324837191 -0.0008003703084 -0.003635006491)
(-0.07162117027 -0.0007727252791 -0.009368472518)
(-0.08231414573 -0.001558604544 -0.001921379399)
(-0.08866950346 -0.001145642007 0.002341803597)
(-0.06734335432 -0.001920856551 0.01257927115)
(-0.04859200524 -0.001630573646 0.01605651469)
(-0.02142551107 -0.002241772249 0.01693250738)
(-0.003771804023 -0.001739740336 0.01299743115)
(0.01757227945 -0.001640883208 0.00995192009)
(0.03237700772 -0.001005678704 0.01183225209)
(0.04841433501 -0.0007050325893 0.009159845815)
(0.05519090578 -0.0003335706451 0.007648202855)
(0.05610914063 -0.0002127365021 0.001736089816)
(0.03687002503 0.002089691028 -0.006695737422)
(0.03846084353 0.003560298921 0.002695585646)
(0.03538558399 0.007191580233 -0.006338547311)
(0.04676594333 0.005908883477 0.004415085527)
(0.03234290227 0.005548909299 -0.004336129586)
(0.02666533174 0.002189492874 0.002723592125)
(-0.009226803225 0.0002662095448 -0.00655006059)
(-0.03336133607 -0.002535858825 -0.003232263158)
(-0.07214962234 -0.003702239511 -0.008540902186)
(-0.08255313234 -0.004608057191 -0.001699956317)
(-0.0889304294 -0.004918904003 0.003010529193)
(-0.06768891379 -0.00538993699 0.01250661773)
(-0.04882330465 -0.005649804727 0.01650461899)
(-0.02149997255 -0.006070176171 0.01704785576)
(-0.003342987672 -0.005242959584 0.01371198704)
(0.01809050411 -0.004312125004 0.01049867818)
(0.03304017175 -0.002783646655 0.01239465708)
(0.04889216812 -0.001801592686 0.009474052856)
(0.05557000323 -0.0008891448439 0.007974297197)
(0.05642592803 -0.0005788140958 0.001819447996)
(0.03952023151 0.003356484845 -0.006326628694)
(0.04072526708 0.00518763371 0.003296458177)
(0.03646235421 0.01093199261 -0.005635861851)
(0.04590814064 0.008583704127 0.005126408938)
(0.0306294042 0.008451345423 -0.003900737604)
(0.02413725997 0.002920982987 0.003388962784)
(-0.01139604545 0.0008221743053 -0.006312800007)
(-0.03529838956 -0.004087779206 -0.002520095001)
(-0.07308739826 -0.004679164991 -0.008828465647)
(-0.08313143517 -0.006936451531 -0.001251784429)
(-0.08924090031 -0.006010938358 0.001620128836)
(-0.06785328608 -0.007566514639 0.01236822053)
(-0.04907150978 -0.006838596004 0.015350284)
(-0.02114128622 -0.008083934437 0.017250355)
(-0.002532085812 -0.006256893722 0.01388866124)
(0.01931647625 -0.005379014065 0.01138802172)
(0.0341723744 -0.002960741091 0.01281259053)
(0.04974728524 -0.002009646117 0.009942504198)
(0.05611703645 -0.0009029672507 0.008271229009)
(0.05695173469 -0.0008008218057 0.002002742406)
(0.04309268978 0.004268320964 -0.006005513616)
(0.04374739424 0.00593340002 0.004056605789)
(0.03781837701 0.01282118014 -0.004903968438)
(0.04499999349 0.00960801738 0.006010017298)
(0.02835805193 0.009468925432 -0.002976498217)
(0.02125779534 0.002669153974 0.004314954024)
(-0.01418128576 0.0001403936082 -0.004783695255)
(-0.03727014933 -0.005768555146 -0.001692838)
(-0.07416711918 -0.006430400423 -0.006693826428)
(-0.08344531883 -0.008579110094 -0.0007983444394)
(-0.08939071953 -0.007548494682 0.003575634757)
(-0.06827449429 -0.008254487933 0.01213462093)
(-0.04918385774 -0.007255247936 0.01663199781)
(-0.021080575 -0.007973325453 0.01747927809)
(-0.001432677349 -0.005732333965 0.01554085149)
(0.0204261704 -0.004654572168 0.01232935834)
(0.03543793476 -0.001923039947 0.01380686672)
(0.05032950669 -0.001358309225 0.01027783904)
(0.05652524083 -0.0004444710986 0.008775197564)
(0.05735452647 -0.0008963453403 0.002068339139)
(0.04692104145 0.004949134849 -0.005707416714)
(0.0466881174 0.005488862533 0.004383138073)
(0.03909150667 0.01328195273 -0.00459214663)
(0.04352174601 0.008819326326 0.006483337908)
(0.02574751989 0.009404311112 -0.002691207158)
(0.01752344111 0.001383871422 0.005118072276)
(-0.01736126417 -0.0003306831137 -0.00476300492)
(-0.03996420567 -0.007391422606 -0.0008991120801)
(-0.07507604235 -0.006606168598 -0.007750260294)
(-0.08387865589 -0.009221481589 -0.0002727873677)
(-0.08901660912 -0.006263065384 0.0008560217199)
(-0.06765123552 -0.007232261928 0.01188620051)
(-0.04887385454 -0.004750592872 0.01451125285)
(-0.02005955925 -0.005754165043 0.01761154637)
(-0.0001868557452 -0.002785431332 0.01525038601)
(0.02201250777 -0.002287975289 0.01300557905)
(0.03652311591 0.0004789468044 0.01364620911)
(0.05077439732 0.0001150928586 0.01029903364)
(0.05656799873 0.0005004418498 0.008707860628)
(0.05758093634 -0.000781119126 0.002157635285)
(0.05063736515 0.005092778001 -0.005657977776)
(0.0495547376 0.003865167817 0.004384612846)
(0.04020367539 0.01184873185 -0.004578309977)
(0.04223676214 0.006316206773 0.006715787382)
(0.02311935043 0.007503877432 -0.00196238369)
(0.01435701983 -0.001001378626 0.005785210912)
(-0.02038071845 -0.001886329869 -0.003111864975)
(-0.04172647334 -0.009067720621 -0.0003225930211)
(-0.07546219317 -0.007160408202 -0.005117936704)
(-0.08316800531 -0.009140714071 4.893318613e-05)
(-0.08798351589 -0.004923080738 0.004003906537)
(-0.06721078496 -0.004781915415 0.011629707)
(-0.04814537037 -0.001208511992 0.01646550385)
(-0.01969365996 -0.001830657433 0.01758853952)
(0.001012468093 0.001473947008 0.01682834807)
(0.02273936266 0.001322729398 0.01327807049)
(0.0371587048 0.003763177172 0.01398162131)
(0.05032573175 0.002175150491 0.009886334159)
(0.05602056479 0.002011967218 0.008694887995)
(0.05722313259 -0.0005310230624 0.002016647858)
(0.05339130684 0.004930007317 -0.005709556598)
(0.05138326601 0.001100661704 0.003675480291)
(0.04085558892 0.009234642828 -0.005348155739)
(0.04042750746 0.002324396026 0.006114766773)
(0.02058434914 0.004680064035 -0.002569492953)
(0.01087590586 -0.004363122652 0.005777275992)
(-0.02305494415 -0.00369502596 -0.004052492462)
(-0.04370316492 -0.01075536628 -0.0001798776454)
(-0.07512428204 -0.006942768315 -0.00703004583)
(-0.08226905487 -0.008376242493 0.0003466458859)
(-0.0859399395 -0.001771847691 0.0007046517514)
(-0.06503058186 -0.001078919661 0.01150957224)
(-0.04680406779 0.004153416318 0.01404261012)
(-0.01817739677 0.003604936809 0.0174412336)
(0.002032107637 0.007134336068 0.01577461301)
(0.023638764 0.006054305345 0.01312731494)
(0.03714853676 0.007807220648 0.01295756067)
(0.04951705116 0.00498193227 0.00923279695)
(0.05477577577 0.003943520155 0.008073037647)
(0.05621309031 7.011120642e-05 0.00190831465)
(0.05502381264 0.004134434813 -0.005950103861)
(0.05251702463 -0.002399983356 0.002816819823)
(0.04111107498 0.005232365058 -0.006243849298)
(0.03900335504 -0.002797084645 0.005108233569)
(0.01839851746 0.0004857622818 -0.002814381303)
(0.008436793989 -0.008597147556 0.005197013514)
(-0.02489698599 -0.006340024535 -0.003332218733)
(-0.04401991446 -0.01263735328 -0.0005482256368)
(-0.07377526792 -0.006664587185 -0.004715013337)
(-0.07950056994 -0.007155312386 0.0003940179403)
(-0.08282935232 0.002115834065 0.004573308153)
(-0.06303263813 0.003558588967 0.01149494376)
(-0.04485422343 0.01073206896 0.01637124035)
(-0.01760402184 0.01029045603 0.01721088761)
(0.002731956871 0.01408544301 0.01687335576)
(0.02321790588 0.01182326376 0.0127964498)
(0.03641263733 0.01295185688 0.01283904606)
(0.04756765462 0.008499143094 0.008532535063)
(0.05265474506 0.006668945627 0.007736848089)
(0.05407967249 0.0007872320557 0.001627350726)
(0.05475047399 0.003371209571 -0.006181508036)
(0.05207315089 -0.006555135729 0.001581890876)
(0.04063206417 0.0008283863839 -0.00772810015)
(0.03706745628 -0.008832229832 0.003269136487)
(0.01649203428 -0.004251972364 -0.004755666677)
(0.006057091316 -0.01359816256 0.003562985223)
(-0.02590571098 -0.009464677052 -0.005580308697)
(-0.04391664398 -0.01491401703 -0.001613378802)
(-0.07124032013 -0.006821027249 -0.006827129641)
(-0.07605577143 -0.005923756639 0.0004442869823)
(-0.07837729398 0.005397223075 0.002797364466)
(-0.05896571078 0.008412482506 0.01177659607)
(-0.04206798757 0.01720260326 0.01466460554)
(-0.01583070373 0.01740305778 0.01695906857)
(0.003096783243 0.02126821462 0.01551283945)
(0.02283992755 0.01823995283 0.01228923506)
(0.03479886217 0.0184622955 0.01176640598)
(0.04503629493 0.0127012043 0.007900825687)
(0.04940993064 0.009633132217 0.007043360141)
(0.05065105362 0.001854258756 0.001438958914)
(0.05293047093 0.002323567661 -0.006339209463)
(0.05062842528 -0.01054604324 0.0006412138815)
(0.03957472908 -0.004156556385 -0.008772800275)
(0.03541865879 -0.01509931893 0.001349970768)
(0.01503634746 -0.009699036524 -0.00606493063)
(0.004766149987 -0.01890604281 0.001370603113)
(-0.02581954773 -0.01299976609 -0.006232415894)
(-0.04212866843 -0.01740298197 -0.003082573631)
(-0.06740224412 -0.006967621939 -0.005554536403)
(-0.07086176321 -0.004886224377 0.0004166868076)
(-0.07271645707 0.009141050883 0.005735244042)
(-0.05472742986 0.01309146874 0.01216671492)
(-0.03852466512 0.0239775774 0.01649374439)
(-0.01475764729 0.0244437692 0.01657164257)
(0.003301376505 0.02888571831 0.01586321487)
(0.02123287627 0.02482302808 0.01176569477)
(0.03248927925 0.0245473443 0.01166778204)
(0.04127566851 0.01707749172 0.007518253498)
(0.04505081754 0.01305614354 0.006716269603)
(0.04568015243 0.002796245422 0.00118587752)
(0.0491245233 0.001757511121 -0.006377810592)
(0.04739689161 -0.01426736754 -0.0002966506048)
(0.03750057918 -0.008244130646 -0.01001562789)
(0.03316715948 -0.02108440676 -0.000892091965)
(0.01380700375 -0.01450788682 -0.0087238907)
(0.003745368312 -0.02414876075 -0.001543335488)
(-0.02483144255 -0.01639217283 -0.009439427029)
(-0.03962208199 -0.02012335697 -0.005126524631)
(-0.06237802706 -0.007926512203 -0.007705047371)
(-0.0646708625 -0.004627417815 0.0002072788259)
(-0.06568605755 0.01087364349 0.004706034299)
(-0.04853382631 0.01640295161 0.01253928692)
(-0.0340759747 0.0284667732 0.01526484279)
(-0.01239216394 0.029835853 0.01605480304)
(0.003341708529 0.03441877441 0.01432606124)
(0.01976339492 0.03002278986 0.01111520777)
(0.02930597012 0.02902510877 0.0109534662)
(0.03685597907 0.02065988689 0.007288030797)
(0.03935554053 0.0155391649 0.006190876255)
(0.03918222185 0.003738955426 0.001009502947)