/*--------------------------------*- C++ -*----------------------------------*\
| =========                 |                                                 |
| \\      /  F ield         | OpenFOAM: The Open Source CFD Toolbox           |
|  \\    /   O peration     | Version:  5.x                                   |
|   \\  /    A nd           | Web:      www.OpenFOAM.org                      |
|    \\/     M anipulation  |                                                 |
\*---------------------------------------------------------------------------*/
FoamFile
{
    version     2.0;
    format      ascii;
    class       volScalarField;
    location    "4";
    object      rho;
}
// * * * * * * * * * * * * * * * * * * * * * * * * * * * * * * * * * * * * * //

dimensions      [1 -3 0 0 0 0 0];

internalField   nonuniform List<scalar> 
30538
(
1.277454977
1.289623094
1.289715965
1.289879797
1.289811093
1.289999281
1.290003571
1.290017586
1.289968643
1.290012749
1.289928728
1.289904474
1.289767071
1.289730989
1.289803728
1.289858877
1.289858798
1.289804468
1.289817597
1.293240123
1.277504566
1.289693955
1.289709352
1.28987464
1.289835921
1.29000712
1.290003862
1.29003599
1.290012793
1.290045609
1.28992442
1.28990358
1.289807623
1.289789957
1.289826586
1.289835132
1.289833014
1.289810312
1.289845425
1.293245796
1.277630985
1.289780328
1.289701896
1.289867913
1.289855909
1.290001449
1.289984971
1.290045197
1.290060652
1.290071049
1.289897996
1.289878804
1.289840932
1.289848312
1.28983977
1.289785888
1.289784885
1.289803894
1.289868408
1.293285635
1.277753535
1.289852702
1.289719868
1.289879536
1.289874528
1.2900068
1.289980157
1.290055314
1.290096398
1.290090333
1.289880451
1.289857506
1.289864608
1.289891569
1.289850947
1.289751375
1.289751007
1.289800968
1.289886318
1.293271238
1.277986396
1.289857194
1.289755536
1.289892711
1.289880073
1.29002096
1.290004379
1.290062739
1.290095305
1.290093627
1.289893179
1.289862293
1.289874421
1.289905828
1.289854977
1.28974437
1.289743245
1.289796616
1.289880877
1.293327591
1.278152728
1.289793695
1.289794816
1.289898905
1.289865452
1.290030961
1.290049841
1.290075635
1.290056046
1.290076202
1.289933411
1.289899441
1.289876839
1.289887701
1.289846458
1.289763533
1.289761076
1.289786052
1.289845795
1.29328217
1.278524316
1.289718467
1.289829677
1.289896843
1.289836329
1.290020202
1.290094238
1.290093307
1.290001882
1.290037434
1.289979063
1.289953469
1.289875126
1.289842535
1.289820021
1.289791238
1.289792822
1.28976965
1.289787979
1.293297603
1.278867157
1.289675623
1.289841757
1.289884658
1.289797261
1.289981675
1.290109737
1.2901044
1.28995485
1.289982875
1.289996724
1.289998676
1.2898674
1.289782069
1.289775037
1.289805754
1.289821339
1.289753837
1.289730295
1.293197415
1.279500852
1.28967165
1.289818263
1.289856735
1.289754879
1.289921335
1.290085461
1.29009912
1.289928956
1.289927812
1.289971684
1.290013221
1.289862486
1.289727128
1.289723166
1.289798332
1.289836349
1.289746514
1.28969647
1.293134004
1.280037105
1.289677454
1.289758666
1.289808959
1.28971444
1.289858278
1.290019997
1.290057287
1.289912712
1.289878297
1.28991115
1.289990045
1.289859541
1.289701591
1.289684361
1.289776424
1.289832759
1.28975301
1.289699657
1.292986435
1.28085136
1.28966933
1.289687966
1.289746073
1.289683619
1.289812663
1.28993176
1.289976023
1.289890358
1.289845889
1.289847282
1.289934131
1.289847557
1.289714797
1.289683993
1.289757997
1.289817203
1.289771723
1.289739914
1.29282213
1.281482187
1.28964124
1.289625571
1.289675238
1.289659549
1.289783132
1.289830751
1.289863565
1.289851407
1.289831122
1.289797789
1.289858295
1.289817697
1.289761376
1.289728904
1.289756216
1.289799928
1.289795445
1.289798659
1.292632118
1.282433629
1.289624896
1.289580615
1.289611771
1.289631526
1.289758288
1.28973442
1.289746433
1.289802176
1.289831809
1.289770713
1.289776322
1.289777526
1.28981915
1.289804358
1.289774013
1.289783687
1.289810382
1.289850762
1.292349519
1.283172906
1.289631951
1.289549882
1.289565937
1.289593491
1.289718432
1.289651655
1.289653178
1.289753168
1.289824378
1.289750723
1.28970423
1.289733557
1.289866923
1.289879589
1.289802554
1.289771375
1.289808493
1.289879878
1.292121448
1.284268888
1.289660976
1.289522319
1.289544027
1.289560594
1.289671456
1.289597333
1.289604362
1.289718262
1.28980307
1.289730513
1.289662482
1.28970414
1.289883338
1.289926007
1.289833538
1.289769539
1.289799409
1.289884506
1.291714751
1.285075091
1.289678175
1.289503263
1.289546516
1.289548812
1.289640237
1.289583012
1.289604054
1.289694753
1.289764678
1.289712639
1.289661501
1.289698972
1.289869726
1.289927642
1.289856019
1.289783804
1.289799397
1.289874395
1.291459809
1.286222926
1.289678127
1.289509221
1.289569425
1.289574494
1.289640927
1.289607564
1.289637694
1.289681049
1.289721932
1.289713329
1.289699688
1.289719977
1.289834928
1.289889525
1.28986511
1.289813506
1.289814445
1.289861885
1.290950781
1.287024256
1.289668201
1.289547905
1.289603443
1.289625521
1.289671577
1.289653216
1.289677981
1.289679708
1.289693521
1.289726987
1.289749858
1.28974968
1.289799976
1.289836786
1.289853131
1.28983633
1.289831834
1.289848799
1.290703515
1.288232113
1.289652892
1.289606359
1.289589378
1.289659116
1.289639838
1.289671093
1.28965324
1.289673902
1.28966118
1.289737234
1.289770947
1.28977106
1.289773839
1.289807968
1.28982608
1.28984832
1.289831502
1.289835253
1.290168552
1.293469359
1.28101347
1.289975881
1.278048024
1.286732143
1.276982554
1.285138768
1.278086282
1.285519295
1.280876184
1.287576143
1.284508141
1.290303936
1.287742211
1.292451089
1.289627559
1.29318431
1.289698743
1.292355953
1.288602344
1.275384607
1.289624024
1.289749565
1.289857125
1.289803043
1.29004302
1.290125625
1.290112683
1.290003884
1.289973166
1.289932718
1.289968648
1.289860847
1.289753955
1.289744569
1.289817469
1.289884867
1.289858297
1.289862076
1.294276142
1.275418922
1.289652521
1.289754461
1.289858723
1.289825155
1.290054092
1.290100924
1.290102252
1.290035109
1.290020592
1.289953836
1.289963094
1.289863102
1.289785959
1.28978255
1.289830261
1.289877488
1.289855119
1.289871878
1.29430033
1.275514914
1.289693384
1.289774057
1.28987974
1.289851484
1.2900568
1.290053923
1.290066919
1.290062862
1.290074373
1.289964192
1.289932077
1.289841788
1.289807378
1.289818327
1.289828794
1.289843231
1.289826073
1.289866118
1.294354562
1.275636022
1.289745407
1.289817108
1.289928353
1.2898867
1.290066392
1.290031235
1.290042501
1.290082061
1.290116021
1.289974085
1.289901077
1.28981475
1.289818002
1.289844102
1.289822888
1.289809256
1.289798548
1.289861345
1.294387343
1.275855834
1.289760014
1.289846331
1.289956553
1.289899164
1.290069287
1.290049737
1.29005027
1.290073089
1.290118661
1.2899869
1.289892561
1.289794987
1.289815024
1.289852495
1.289814874
1.289790176
1.289781889
1.28985558
1.294462874
1.276062193
1.289727004
1.28984175
1.289944872
1.289882611
1.290058664
1.290094173
1.290083868
1.290041795
1.290081696
1.289994507
1.289910571
1.289800647
1.289807289
1.289837341
1.28980261
1.289789833
1.289781955
1.289845753
1.29447096
1.276447573
1.289697919
1.28980965
1.289899541
1.289862511
1.290034937
1.290115891
1.290115249
1.290015976
1.290022877
1.289979617
1.289941748
1.289837412
1.289803993
1.289801162
1.289780735
1.289799407
1.28979494
1.289835189
1.294490197
1.276866318
1.289707152
1.289776455
1.289846779
1.289851897
1.290002609
1.290083803
1.290119133
1.290012431
1.289968281
1.289933318
1.289963338
1.289889477
1.289810113
1.289754624
1.289745703
1.289803679
1.289811404
1.289828974
1.294421039
1.27755687
1.289766325
1.28975689
1.289804902
1.289846063
1.289960417
1.290010734
1.290092809
1.29003124
1.289934854
1.289868669
1.289956151
1.289940554
1.289829362
1.289713163
1.289701272
1.289793314
1.289825129
1.289833815
1.294324295
1.278223337
1.289809041
1.289739259
1.289768082
1.289825256
1.289913478
1.289922081
1.290032421
1.290039726
1.289917378
1.289807617
1.289924451
1.289969014
1.289856147
1.289693197
1.289666593
1.289775265
1.289835075
1.289846742
1.294162517
1.279113068
1.289778005
1.28970943
1.289721827
1.289773163
1.289865232
1.289850458
1.289950859
1.290000666
1.289902061
1.289782278
1.289882094
1.28994856
1.289873318
1.289714021
1.289668252
1.289767284
1.289840155
1.289862813
1.293915344
1.279876776
1.289671067
1.289666942
1.289664398
1.289690385
1.289813206
1.28980277
1.289858332
1.289906178
1.289877252
1.289799051
1.289841041
1.289879778
1.289868796
1.289765696
1.28971843
1.289780619
1.289838882
1.289869343
1.293658742
1.280923189
1.289563375
1.289627218
1.289616279
1.289597192
1.289755266
1.289773492
1.289773282
1.289786667
1.289844953
1.289848207
1.289815541
1.289788981
1.28983924
1.289832928
1.289806546
1.289814533
1.289828515
1.289854853
1.293240618
1.281850868
1.289518694
1.289608376
1.289590999
1.289523694
1.289695983
1.289739346
1.289708777
1.289686188
1.289809802
1.289893045
1.289811628
1.289712865
1.289797592
1.289885921
1.289899436
1.289855133
1.289809554
1.289822454
1.292913742
1.283117761
1.2895549
1.289611941
1.289595022
1.289490984
1.289651742
1.289697904
1.289674531
1.289637063
1.289775036
1.289901805
1.289823334
1.289691958
1.289761675
1.289904567
1.2899642
1.289887948
1.289792958
1.289786393
1.292352455
1.284157799
1.28962417
1.289618889
1.289602817
1.289498919
1.289633347
1.289663727
1.289670322
1.289639443
1.289737283
1.289860532
1.289834125
1.289728096
1.289751303
1.289883084
1.289970232
1.289903379
1.289797982
1.289777012
1.292007021
1.285493058
1.28967174
1.289623337
1.289601774
1.289528481
1.289639569
1.289653657
1.289688173
1.289666826
1.289696276
1.28978826
1.289847088
1.289800342
1.289770846
1.289829965
1.289916534
1.289896724
1.289823913
1.289798129
1.291357524
1.286514471
1.289681109
1.289631209
1.289595038
1.289564775
1.289657885
1.289670971
1.289710891
1.289688005
1.289671882
1.289724493
1.289838842
1.289856638
1.289796846
1.289775666
1.289841996
1.28986851
1.289846176
1.289826886
1.291038217
1.287909478
1.289661986
1.28964392
1.289541072
1.289580041
1.289599436
1.289660095
1.289658572
1.289679546
1.289637017
1.289692971
1.289796873
1.289867126
1.289808078
1.289772421
1.28979354
1.289852043
1.289841395
1.289838634
1.290351872
1.293168424
1.280407027
1.288908347
1.276816151
1.285045506
1.275480509
1.283249489
1.276736868
1.284058355
1.280026656
1.286898636
1.284226722
1.290500754
1.287938879
1.293330093
1.289941363
1.294297199
1.289779608
1.293291556
1.288305109
1.273161335
1.289715045
1.289812112
1.289800405
1.28982967
1.290076829
1.290155058
1.290200126
1.290109234
1.289928838
1.289860964
1.290008237
1.289971214
1.289793864
1.28961943
1.289652669
1.289814553
1.289893893
1.289925385
1.296959008
1.273154478
1.289668148
1.289850536
1.289845603
1.289847232
1.290097106
1.290170216
1.290180522
1.290078149
1.289968648
1.289945018
1.290017648
1.289920024
1.289794786
1.289705647
1.289745398
1.289851737
1.28987991
1.289902375
1.296974937
1.273214764
1.289600406
1.289899834
1.28990085
1.289866938
1.29011648
1.290157236
1.290115055
1.290028286
1.290024397
1.290036648
1.289997833
1.289825988
1.289756418
1.289772944
1.289825647
1.289863187
1.289832511
1.289853791
1.297104587
1.273274204
1.289574578
1.28995878
1.289966858
1.289897342
1.290129082
1.290130582
1.290051381
1.290001303
1.2900949
1.290099587
1.289965583
1.289739197
1.289704285
1.289797121
1.289860425
1.289848203
1.28978061
1.289813774
1.297128724
1.273536359
1.289610695
1.289973752
1.290008519
1.289910206
1.290101727
1.29013099
1.29005459
1.290003151
1.290109581
1.290101514
1.2899476
1.28970701
1.289666705
1.289775911
1.289846017
1.289823783
1.289753925
1.289808644
1.297337111
1.273767969
1.289678566
1.289920919
1.290001241
1.289905848
1.290046636
1.290146866
1.290117307
1.290021922
1.290058609
1.290034633
1.289937702
1.289740667
1.289675948
1.289736136
1.289790949
1.289795463
1.289763505
1.28984025
1.297326662
1.27428237
1.289738623
1.289810166
1.289928271
1.289913502
1.28999924
1.290109982
1.290157842
1.29005538
1.289992281
1.289929801
1.289922609
1.289816461
1.289733989
1.289705925
1.28971978
1.289769144
1.289799226
1.289889906
1.297461184
1.274704554
1.289785038
1.289699622
1.289832057
1.289940707
1.289983527
1.290006539
1.290126466
1.290094982
1.289959628
1.289826924
1.289886376
1.289895873
1.289820373
1.289701509
1.289655516
1.289736164
1.289831689
1.289937888
1.297327501
1.275535879
1.289854177
1.289660161
1.289765324
1.289982636
1.28999743
1.289865459
1.290032743
1.290144979
1.28997898
1.289765217
1.289834969
1.289951029
1.289923999
1.289742308
1.289620019
1.289703442
1.289844019
1.289964357
1.297237246
1.276176952
1.28988127
1.289689965
1.289729837
1.289977649
1.289996218
1.289762697
1.28992114
1.290156435
1.290017742
1.289753362
1.289785726
1.289956598
1.290006737
1.28981319
1.289623098
1.289682405
1.289839714
1.289968965
1.296924346
1.277265687
1.289832132
1.289730955
1.28970019
1.289883971
1.289935745
1.289736947
1.289851717
1.290079323
1.290015695
1.289789718
1.289761162
1.289918057
1.290017623
1.289860281
1.289666133
1.28969726
1.289835353
1.289954482
1.296546726
1.278011837
1.289691221
1.289731958
1.289663376
1.289709952
1.289820845
1.289771548
1.289830975
1.289925927
1.289943653
1.289858398
1.289798366
1.289860428
1.289954623
1.289856008
1.289729887
1.289746979
1.289839061
1.289924753
1.296073083
1.279350074
1.289543993
1.289700556
1.289633125
1.289536404
1.289696747
1.28982402
1.289833332
1.289753328
1.289829872
1.289939777
1.289888662
1.289822763
1.289851413
1.28982954
1.289815555
1.28982592
1.289843965
1.289876491
1.295403998
1.280301066
1.289465383
1.289686837
1.289627258
1.289444205
1.289620029
1.289834923
1.289822045
1.289617528
1.28972672
1.290007056
1.289979149
1.289815724
1.289763903
1.289811745
1.289903807
1.289907482
1.289844257
1.289814869
1.29482327
1.281945205
1.28949239
1.289702432
1.289642375
1.28944824
1.289606954
1.28979215
1.289792682
1.289576153
1.289677016
1.290013253
1.290037714
1.289842336
1.289724037
1.289805521
1.289966746
1.289968921
1.289833902
1.289746966
1.293934155
1.28301782
1.289581238
1.289729375
1.289630905
1.289496862
1.289633186
1.289712821
1.289757468
1.289631397
1.289676007
1.289936862
1.290036709
1.289888609
1.289744144
1.289796284
1.289970448
1.289986646
1.289833917
1.289717768
1.293338742
1.284758178
1.289650127
1.289736662
1.289595812
1.289531268
1.289649643
1.289645971
1.289736362
1.289709943
1.289676185
1.289801156
1.289976298
1.289940445
1.289796198
1.289772512
1.289909567
1.289953299
1.289849689
1.28974155
1.29234832
1.285818458
1.289683223
1.289718238
1.289575195
1.289540898
1.289635527
1.289624801
1.289737041
1.289753687
1.289655302
1.289675314
1.289881488
1.289962955
1.289835606
1.28974249
1.289821709
1.289893103
1.289865108
1.289790155
1.291804249
1.287660248
1.289663992
1.289695559
1.289505828
1.289526716
1.289510546
1.28961402
1.289662253
1.289727915
1.289605701
1.289622658
1.289786728
1.289933948
1.289850848
1.289757211
1.28978193
1.289857767
1.289858043
1.289822794
1.290768079
1.294428997
1.27801879
1.289428886
1.2737965
1.284950698
1.272576396
1.282968418
1.274736928
1.283994303
1.279334544
1.287324082
1.284897763
1.29145332
1.28980044
1.294574665
1.292392993
1.295210714
1.291933361
1.29333262
1.289699933
1.266571456
1.289934448
1.289893267
1.289787119
1.289974699
1.290061484
1.289985019
1.290120233
1.290171098
1.289995185
1.289768026
1.289732722
1.289843525
1.289908026
1.289759336
1.289559067
1.289578122
1.289729565
1.289911967
1.301422138
1.266495368
1.289784698
1.289997505
1.289887182
1.289934989
1.290093977
1.290121452
1.29017931
1.290131612
1.289994001
1.289868947
1.289831377
1.289851193
1.289863119
1.289728538
1.289593954
1.289640591
1.289766532
1.289916564
1.301526784
1.266376182
1.289548835
1.290054572
1.289938095
1.289897164
1.290143535
1.290220958
1.290166556
1.290032
1.289969755
1.289967898
1.289932901
1.289831311
1.289751545
1.289652532
1.289641831
1.289724465
1.289785364
1.289878576
1.301739715
1.266291192
1.289354958
1.290064
1.289935232
1.289891681
1.290175866
1.29023053
1.290092303
1.289927025
1.28993242
1.290033546
1.290015889
1.289810406
1.289629331
1.289569701
1.28969846
1.289795951
1.289780029
1.289823639
1.301970142
1.266414138
1.289397557
1.290053114
1.289960228
1.289917202
1.290124357
1.290197007
1.290095969
1.289912424
1.28989617
1.290031295
1.290071327
1.289811793
1.289524655
1.289497345
1.289725795
1.289834243
1.289763608
1.289784004
1.302282753
1.266746296
1.289643388
1.289998317
1.290012014
1.289961736
1.29000853
1.290136082
1.290188447
1.290006486
1.289884868
1.289967602
1.290065988
1.289836264
1.289493229
1.289466996
1.289713738
1.289821678
1.289760268
1.289795227
1.302509353
1.267296168
1.28983295
1.289863323
1.289987437
1.29000089
1.289923863
1.290032863
1.290211402
1.290121967
1.289924772
1.289878544
1.289973303
1.289835929
1.289556536
1.28951221
1.289680474
1.289762821
1.289768402
1.289857905
1.302696692
1.26789097
1.289857501
1.289690693
1.289900004
1.290029769
1.289926908
1.289905399
1.29010598
1.290183233
1.289998905
1.289814671
1.289820964
1.289796452
1.289691617
1.289636747
1.289653546
1.289683815
1.289769371
1.289933307
1.302697056
1.268762654
1.289758049
1.28961274
1.289817296
1.290072663
1.290012642
1.289773423
1.289904075
1.290168731
1.290096389
1.289829316
1.289686478
1.289730819
1.289843147
1.289824633
1.289667893
1.28961777
1.289753347
1.289982999
1.302487558
1.269680024
1.289657003
1.289676771
1.289772358
1.290048876
1.290062733
1.289685064
1.289724434
1.290091956
1.290192635
1.289920112
1.289628117
1.289666256
1.289961672
1.290011044
1.289733263
1.289588786
1.289723103
1.289980369
1.302073333
1.271039976
1.289627763
1.289775219
1.289746726
1.289912187
1.289978998
1.289680128
1.289678736
1.289961568
1.290163525
1.290024614
1.289664155
1.289635514
1.289987625
1.290101553
1.289829937
1.289628788
1.289702859
1.289932102
1.301330586
1.272398928
1.289627534
1.289817771
1.289710892
1.289693799
1.289784672
1.289760331
1.289778364
1.289824798
1.290005699
1.290060388
1.289785555
1.289685447
1.28991467
1.290047833
1.289896999
1.289720274
1.289717441
1.289864469
1.300525716
1.274280979
1.289619083
1.289772266
1.289672153
1.289517812
1.289590049
1.289846236
1.289941835
1.289733682
1.289774957
1.290016169
1.289978757
1.289841347
1.289801987
1.289877529
1.289906679
1.289843851
1.289775735
1.289811825
1.299311891
1.275966422
1.289603516
1.289723969
1.289636839
1.289481422
1.289518389
1.289834977
1.29002922
1.289698925
1.289584269
1.289924009
1.29016562
1.290039771
1.28973944
1.289682054
1.28986457
1.28995656
1.289870721
1.289795474
1.298295843
1.278184361
1.289628329
1.289742497
1.289616093
1.289564204
1.289566868
1.289728727
1.289970811
1.289701506
1.289525581
1.289808986
1.290230328
1.290194268
1.289776287
1.289586019
1.289797508
1.290013241
1.289969984
1.289817319
1.296789538
1.279950696
1.289667589
1.289789343
1.28957024
1.28964775
1.289650413
1.289588948
1.289804869
1.289743693
1.289607679
1.28972344
1.290112777
1.290228205
1.28989828
1.289644728
1.289740779
1.289977782
1.290004798
1.289850308
1.295774872
1.282312196
1.289710326
1.289788887
1.289501659
1.289641722
1.289685391
1.289518474
1.289668127
1.289805514
1.289749591
1.289667254
1.289844947
1.290131455
1.290095983
1.289826098
1.289703685
1.289848014
1.289938853
1.289858055
1.294122751
1.284136171
1.289753052
1.289735063
1.289514814
1.289594291
1.289657499
1.289560433
1.289656306
1.289866123
1.289863595
1.289642333
1.28960351
1.289975288
1.290219672
1.289986811
1.289693407
1.289687502
1.289819493
1.289834847
1.293192702
1.2867169
1.289716545
1.289654009
1.28947164
1.289483591
1.289440458
1.289584601
1.289593405
1.28981857
1.289841083
1.289643181
1.28949165
1.289842002
1.290179077
1.290056583
1.289750718
1.289669606
1.289746188
1.289795998
1.291465098
1.293520569
1.275831928
1.28600913
1.269519235
1.279247423
1.267409403
1.276567822
1.270242998
1.279085455
1.276646926
1.285331906
1.284390384
1.292504375
1.290974567
1.298090291
1.294134407
1.299553216
1.292650584
1.296658603
1.288792262
1.260756889
1.28992987
1.28989607
1.289919605
1.290179391
1.289997382
1.289858665
1.289932822
1.290151391
1.290229074
1.289782914
1.289379609
1.28971626
1.290105783
1.289936275
1.289491904
1.289239156
1.289378298
1.289761464
1.308672499
1.260647205
1.289852149
1.290081703
1.290088629
1.290132872
1.289976802
1.289934869
1.290104226
1.290159001
1.289995025
1.28970196
1.289519296
1.28972404
1.289874674
1.289689557
1.2894441
1.289388284
1.289534209
1.289840856
1.30884565
1.260417076
1.28959942
1.290138799
1.290073412
1.290043772
1.290020646
1.290049068
1.290205721
1.290071652
1.289754667
1.289675412
1.289747145
1.289754773
1.289616013
1.289421329
1.289408995
1.289542437
1.289665982
1.289872988
1.309380594
1.260055615
1.289284724
1.290062414
1.289908046
1.289957564
1.290138263
1.290211222
1.29022204
1.289925265
1.289577814
1.289776239
1.290060956
1.289847301
1.289438334
1.289250561
1.289442827
1.289672245
1.289746006
1.289842078
1.309723841
1.26009862
1.28930112
1.289992548
1.289816963
1.289970409
1.290150645
1.290235814
1.290215356
1.289900486
1.289600893
1.289857414
1.290194791
1.289896098
1.289391312
1.289233867
1.289501194
1.289723587
1.289746412
1.289770507
1.310468386
1.260360513
1.28966813
1.28997022
1.289872127
1.290049666
1.290060636
1.290070894
1.290149109
1.290011089
1.289822992
1.289896894
1.290033449
1.289812854
1.289453016
1.289344141
1.289543088
1.289692235
1.289703387
1.289721304
1.310746351
1.261077416
1.289951676
1.289937205
1.289957782
1.290088664
1.28994252
1.289873997
1.290039929
1.290138103
1.290029015
1.28988799
1.28980789
1.289682979
1.289525703
1.289465447
1.289556521
1.289630212
1.289665092
1.289733799
1.311264726
1.261594363
1.28988203
1.289831622
1.289998759
1.290052629
1.28990275
1.289795204
1.289922682
1.290182456
1.290164572
1.289896587
1.289647591
1.289582914
1.289603003
1.289587811
1.289564104
1.28957975
1.289657862
1.289797783
1.311166309
1.262634257
1.289487782
1.289741115
1.289965
1.289991967
1.28996379
1.289818221
1.289778721
1.290036038
1.290214131
1.289998212
1.289612386
1.289477596
1.289628226
1.289722455
1.289657612
1.289605335
1.289681951
1.289853594
1.310954947
1.263459697
1.289152942
1.289731955
1.289911015
1.28990584
1.28997542
1.289864484
1.28966479
1.289760453
1.290165414
1.290209076
1.289706213
1.289376198
1.289587572
1.289834367
1.289827952
1.28970715
1.289710986
1.289864622
1.310186546
1.265374368
1.289197344
1.2898054
1.28986438
1.289777673
1.289855403
1.289891535
1.289707489
1.289579889
1.290001752
1.290339788
1.289869588
1.289422923
1.289565872
1.289899862
1.28997143
1.289802363
1.289708958
1.289817777
1.308999232
1.267023875
1.289509823
1.289830691
1.289804332
1.289638303
1.289629821
1.289876844
1.289898106
1.289640276
1.289809196
1.290190692
1.290004267
1.289692352
1.289659448
1.289897017
1.290008406
1.289832189
1.28968128
1.289737523
1.307618946
1.269883006
1.28981904
1.289730465
1.289715107
1.289591589
1.289441014
1.289748618
1.290071325
1.289823962
1.289671421
1.289849373
1.290059834
1.290036569
1.2898131
1.289817373
1.289943915
1.28983508
1.289687472
1.28969566
1.305605532
1.271813778
1.289906791
1.28959652
1.289591377
1.289673061
1.289438322
1.289569376
1.290085214
1.289974535
1.289603697
1.28955085
1.290035895
1.290270468
1.289944006
1.289749388
1.289842413
1.289853725
1.289767232
1.289736018
1.303933559
1.274943396
1.289811149
1.28956731
1.289481927
1.28982725
1.289589418
1.289446154
1.289929385
1.289961015
1.289603983
1.289470206
1.289954363
1.290342018
1.290065936
1.289757954
1.289758036
1.289878507
1.289897559
1.289848481
1.301426603
1.276807412
1.289636865
1.289616786
1.289449645
1.289877062
1.289717813
1.289437505
1.28968585
1.289830878
1.289717174
1.289598473
1.289824938
1.290243447
1.290197561
1.289863597
1.289698882
1.289851331
1.289982617
1.289958465
1.299746678
1.280228874
1.289610705
1.289645893
1.289475107
1.28978943
1.289700384
1.289498761
1.289572915
1.28975339
1.289882689
1.289756557
1.289658086
1.2900479
1.290299578
1.290018647
1.289680001
1.289729602
1.289930493
1.289994595
1.297001051
1.282358305
1.289758422
1.28965527
1.289640477
1.289697793
1.289592394
1.289567566
1.2896401
1.289858547
1.290046033
1.289802821
1.289518616
1.289882797
1.290330015
1.290135105
1.289656388
1.289557732
1.289787927
1.289943616
1.295429719
1.286184999
1.289796621
1.289622984
1.289616686
1.289554234
1.2892103
1.289516098
1.289600345
1.289907401
1.290008013
1.289738994
1.28947219
1.289809462
1.290259826
1.290174057
1.289734258
1.289560472
1.289696564
1.289842932
1.292608547
1.29596809
1.270331035
1.286588205
1.262133764
1.278086229
1.260148315
1.274874034
1.265375142
1.278246999
1.274997144
1.285994946
1.286201178
1.294890915
1.295800274
1.301570204
1.300745908
1.302395183
1.298320168
1.29701557
1.292225131
1.248011922
1.289207861
1.28986684
1.290179277
1.290432047
1.289881173
1.289633967
1.289892329
1.28999336
1.28986306
1.289758358
1.289729679
1.289612235
1.289246408
1.28919058
1.28957697
1.289480342
1.289323086
1.289545393
1.31998054
1.247939679
1.289458359
1.290012274
1.290389269
1.290441548
1.289807221
1.289703016
1.29008913
1.290028799
1.289703706
1.289568499
1.289644529
1.289599497
1.289403173
1.289379189
1.289438763
1.289382076
1.289331056
1.289619066
1.320542187
1.247399993
1.289510527
1.290032723
1.290306718
1.290332885
1.289852373
1.289911884
1.290191536
1.289971851
1.289618725
1.289496185
1.289487773
1.289480771
1.289574841
1.28955039
1.289294855
1.2892648
1.289372312
1.289697343
1.321624178
1.246684799
1.289316552
1.289920143
1.289986837
1.290138219
1.290030736
1.290191251
1.290221373
1.289913445
1.28973637
1.289638475
1.289367617
1.289352066
1.289678111
1.289587406
1.289205629
1.289232614
1.289473675
1.28976832
1.322925884
1.246049565
1.289258151
1.289821843
1.289709945
1.290067543
1.290158664
1.290172126
1.290092596
1.289946308
1.289898158
1.289722568
1.289363622
1.289411722
1.289768058
1.289551436
1.289128773
1.289247192
1.289574617
1.289801561
1.324414156
1.246043528
1.289493218
1.289863075
1.289647638
1.290109859
1.290216897
1.289856654
1.289797935
1.290041941
1.290047686
1.28974104
1.289420931
1.289551585
1.289820859
1.289535897
1.289091765
1.289269294
1.289623541
1.289778658
1.325587286
1.246402903
1.289712253
1.290040474
1.289848788
1.290094631
1.290131704
1.289670279
1.289608492
1.290049532
1.290171313
1.292227597
1.289428346
1.289567033
1.289790647
1.28954193
1.289121921
1.289308713
1.289635331
1.289722446
1.326487566
1.247087779
1.289546519
1.290142227
1.290108401
1.289991808
1.289981575
1.289733346
1.289629459
1.289955771
1.290190132
1.290065158
1.289539761
1.289471456
1.289657099
1.289555648
1.289221085
1.289396531
1.289648051
1.289676944
1.326727732
1.24813422
1.288919523
1.289993305
1.290150601
1.28983028
1.289875374
1.289987415
1.289778866
1.289730494
1.290044223
1.290144219
1.289762675
1.289365265
1.289453069
1.289536146
1.289403033
1.289568412
1.28969449
1.289651665
1.326251558
1.249546599
1.288349864
1.289746829
1.290033726
1.289680018
1.289769032
1.290215221
1.289954494
1.289480009
1.289777171
1.290284996
1.289973888
1.289343492
1.289266151
1.289480139
1.28963502
1.289796243
1.289776699
1.289634013
1.325075712
1.252170457
1.288460924
1.289622
1.289922835
1.289588181
1.289635032
1.290208042
1.290051933
1.289419134
1.289614567
1.290213545
1.29006543
1.289501521
1.289208795
1.289411424
1.289819723
1.289994206
1.289839381
1.289620955
1.322916283
1.255200364
1.289222656
1.289671194
1.289860508
1.289625131
1.289478033
1.289921118
1.2900265
1.289608586
1.289618529
1.289974928
1.290118261
1.28983823
1.289374588
1.289394883
1.2898707
1.290055959
1.289857125
1.289625944
1.32042975
1.259353088
1.289957003
1.289668546
1.289761329
1.289817176
1.289470958
1.289511825
1.289913013
1.289953566
1.289746363
1.289614861
1.29003968
1.290263314
1.289786512
1.289515257
1.289797892
1.289964204
1.289840677
1.28968579
1.316873786
1.262780238
1.290171384
1.289529637
1.289568162
1.289995358
1.289599996
1.28923967
1.289757131
1.290254788
1.289858281
1.289291976
1.289843049
1.290552147
1.290279414
1.289735027
1.289675011
1.289781115
1.289814618
1.289799841
1.313728232
1.267110227
1.289829758
1.289373003
1.289339945
1.289985084
1.289705226
1.289249245
1.2896469
1.290246459
1.289883176
1.289238994
1.289618266
1.290470312
1.2905448
1.289976128
1.289620954
1.289623894
1.289794442
1.289933633
1.309402226
1.270389135
1.28931195
1.289266247
1.28935678
1.289850282
1.289642562
1.289440489
1.289605383
1.289879294
1.28983189
1.289536762
1.289556828
1.290087961
1.290421139
1.290162592
1.289729678
1.289567604
1.289757621
1.289987851
1.306332523
1.275311115
1.289154691
1.289287161
1.289643595
1.289793253
1.28946905
1.289581635
1.289626867
1.289518455
1.289834469
1.290003034
1.289637282
1.289540138
1.290020114
1.290306883
1.290021164
1.289664747
1.289668876
1.289905528
1.301693448
1.278970868
1.289496462
1.289462318
1.29005131
1.289963086
1.289440529
1.289573197
1.289707412
1.289483688
1.289930179
1.290382482
1.289787489
1.289159805
1.289636172
1.290441012
1.29035023
1.289809976
1.289565026
1.289728197
1.298976404
1.28433088
1.2897319
1.289567972
1.289964025
1.289920259
1.289035988
1.289262975
1.289513383
1.289557198
1.289945573
1.290396407
1.289903659
1.289211605
1.289543539
1.29042035
1.290467997
1.289927414
1.289595381
1.289624815
1.294326819
1.294667343
1.265538791
1.280369204
1.25286631
1.266903067
1.249170216
1.26171559
1.256301783
1.26883139
1.270303416
1.282682607
1.286299672
1.29814339
1.299778847
1.310137802
1.306173122
1.312825694
1.301064496
1.304538608
1.290837598
1.23559374
1.288513936
1.290028801
1.290376778
1.290482559
1.290044338
1.289971161
1.289920351
1.289346763
1.289248975
1.289974537
1.289807702
1.288969916
1.288554591
1.2889638
1.289576259
1.289729843
1.289413229
1.289314261
1.335160881
1.235272308
1.288907206
1.289897028
1.290304353
1.290560989
1.289968752
1.289674132
1.289824883
1.289910579
1.289753853
1.2896619
1.2895486
1.289164875
1.288941001
1.289164446
1.289368023
1.28931919
1.289238308
1.289404825
1.336152709
1.234375609
1.289241012
1.289823848
1.290233734
1.29047803
1.289903957
1.289692954
1.289853633
1.290267499
1.29004817
1.289369673