/*--------------------------------*- C++ -*----------------------------------*\
| =========                 |                                                 |
| \\      /  F ield         | OpenFOAM: The Open Source CFD Toolbox           |
|  \\    /   O peration     | Version:  5.x                                   |
|   \\  /    A nd           | Web:      www.OpenFOAM.org                      |
|    \\/     M anipulation  |                                                 |
\*---------------------------------------------------------------------------*/
FoamFile
{
    version     2.0;
    format      ascii;
    class       volScalarField;
    location    "4";
    object      T;
}
// * * * * * * * * * * * * * * * * * * * * * * * * * * * * * * * * * * * * * //

dimensions      [0 0 0 1 0 0 0];

internalField   nonuniform List<scalar> 
30538
(
275.5991573
273.0181922
272.9950804
273.0081794
273.0026315
273.020006
273.0218968
273.0244926
273.0213512
273.0259395
273.0190645
273.0177475
273.0067671
273.0049056
273.0120925
273.0174312
273.0176017
273.0126508
273.002607
272.2694001
275.6006423
273.0200431
272.99073
273.0040226
273.0010709
273.016989
273.018179
273.02221
273.0211314
273.0245937
273.0143935
273.0132994
273.005749
273.0053574
273.0094126
273.0107854
273.010877
273.0087294
273.0006283
272.2706651
275.5936941
273.0269951
272.9905558
273.004061
273.0034505
273.0171359
273.0170448
273.0232576
273.025287
273.0264476
273.0116173
273.010472
273.0077591
273.0093127
273.0094269
273.0055108
273.0058738
273.0074836
273.0025341
272.2662873
275.5848594
273.0327545
272.9927775
273.0059299
273.0059936
273.0184228
273.0172318
273.024425
273.0282705
273.0276451
273.0093908
273.0076789
273.0087133
273.0117529
273.009032
273.0012649
273.0019441
273.006433
273.0040833
272.2724041
275.5346328
273.032337
272.9966263
273.008086
273.007512
273.0205647
273.0199192
273.0253193
273.0279409
273.0273519
273.0096186
273.0070028
273.0083734
273.0117301
273.0080838
272.9994492
273.0002521
273.0053156
273.0037579
272.2597683
275.4794198
273.0261176
273.0007914
273.0096691
273.0073947
273.0223798
273.0244544
273.0264783
273.0242808
273.0252715
273.0121748
273.0091733
273.0075434
273.0090479
273.0063685
273.0001723
273.0009931
273.0038566
273.0010605
272.2637987
275.3777551
273.018463
273.0045729
273.0105504
273.0059846
273.0223229
273.0287495
273.0280057
273.0192675
273.0213576
273.0152895
273.012996
273.0066059
273.0044706
273.003455
273.0020268
273.0032835
273.0021591
272.9966745
272.2509246
275.2945287
273.0137388
273.0063331
273.0104379
273.0035233
273.0197108
273.030421
273.0289057
273.0148953
273.0161592
273.0162267
273.0163845
273.0055688
272.9990434
272.9994517
273.003211
273.0056958
273.0007955
272.9923769
272.2620032
275.1638234
273.0117616
273.0049079
273.0087446
273.0004988
273.0149888
273.0285067
273.0283222
273.0123343
273.011086
273.0138437
273.0175451
273.0052211
272.994582
272.9953439
273.002913
273.0072948
273.0004402
272.9902854
272.2694449
275.0604294
273.0106988
273.0001931
273.0050589
272.9973508
273.0097678
273.0228968
273.0245792
273.0107459
273.006726
273.0087913
273.0159226
273.0055774
272.9931777
272.9928628
273.001813
273.0076728
273.0015672
272.9914701
272.3013977
274.8913908
273.0077715
272.9942789
272.9997575
272.9947279
273.0057944
273.0151829
273.0174934
273.0088289
273.0041537
273.0038632
273.0119797
273.0057069
272.9956197
272.9941418
273.0014211
273.0073671
273.0039963
272.9959983
272.3435678
274.7530369
273.0033951
272.9887872
272.9934779
272.9924558
273.0030282
273.006335
273.0078461
273.0057065
273.0033787
273.0005208
273.0067259
273.0046628
273.0012225
272.9995248
273.0026096
273.0069613
273.0068444
273.0020156
272.3952796
274.5437194
272.9994274
272.9845655
272.9876068
272.9896737
273.0005741
272.9979049
272.9979118
273.001847
273.004168
272.9993458
273.001186
273.0028759
273.0078527
273.00754
273.0054361
273.0065474
273.0088098
273.007465
272.4656077
274.3854926
272.9977753
272.9814633
272.983148
272.9859626
272.9968282
272.990707
272.990104
272.9981248
273.0043796
272.9988625
272.9964641
273.0006737
273.0134733
273.0153575
273.0089804
273.0062607
273.0091175
273.0107272
272.5207797
274.1572661
272.9976848
272.978715
272.9807861
272.9827069
272.992513
272.9859753
272.9861347
272.9956878
273.0033858
272.9982429
272.994111
272.9993833
273.0159965
273.0202397
273.0122776
273.006483
273.0084589
273.0118467
272.6084575
273.9903661
272.9972082
272.9768404
272.9806871
272.9814238
272.989635
272.9847379
272.9863585
272.9942106
273.0008009
272.9975468
272.9948115
272.9995844
273.0152952
273.0206499
273.0142641
273.007624
273.0082195
273.0113697
272.6607066
273.7452485
272.995345
272.9773533
272.9826039
272.9835367
272.9896303
272.9869099
272.9894981
272.9934896
272.9976576
272.9980754
272.9983303
273.0014128
273.0121472
273.0170539
273.0146138
273.009688
273.0089954
273.010693
272.7650062
273.5695132
272.9934587
272.9809755
272.9858757
272.9880512
272.9924739
272.9909792
272.9932833
272.9936809
272.9954969
272.9992668
273.0023504
273.0033419
273.0082937
273.0115582
273.0126004
273.0107133
273.0096587
273.0095411
272.8134674
273.3096371
272.9992769
272.98965
273.0035875
273.0001384
273.0138205
273.0034745
273.0107359
273.0002887
273.0028603
273.0020989
273.0073456
273.0038309
273.0053583
273.0032431
273.0073719
273.0051637
273.0079031
273.006365
272.9228347
272.2092185
274.8533254
272.9396014
275.491257
273.6378051
275.7303174
273.9780805
275.4901425
273.8932571
274.8867566
273.4645698
274.1240969
272.8896424
273.4294695
272.4341241
273.0364469
272.2885886
273.0239899
272.4610231
273.2489478
276.0551831
273.0232197
272.9982988
273.0066988
273.0021139
273.0232161
273.0311469
273.0310985
273.02278
273.02103
273.0180573
273.0218376
273.0129103
273.0041527
273.0034315
273.0097781
273.0161788
273.0144711
273.0005651
272.0531914
276.0517943
273.0213547
272.9948827
273.0030549
273.0002837
273.0204939
273.0253379
273.0264152
273.0215429
273.0210395
273.0156988
273.0170856
273.0087318
273.002437
273.0022144
273.0064521
273.011175
273.0098513
272.9972922
272.0486596
276.0414111
273.0242834
272.9968597
273.005262
273.0030277
273.0212756
273.0218364
273.0237489
273.0240409
273.0255133
273.0162289
273.0138771
273.0062109
273.0034435
273.004424
273.0055611
273.0075887
273.0067935
272.9968431
272.0383591
276.0286872
273.0280879
273.000992
273.0100091
273.0067273
273.0228295
273.0205611
273.0220818
273.0258162
273.0288693
273.0166009
273.0104996
273.0030339
273.0033511
273.005635
273.0041701
273.0039362
273.0037859
272.9966022
272.0326152
275.9829294
273.0283546
273.0040424
273.0131321
273.0086062
273.0239
273.0228333
273.0231364
273.0251169
273.0288123
273.0171286
273.0089575
273.0004284
273.0021028
273.0054284
273.0026993
273.0016296
273.0017973
272.996451
272.0166048
275.9268879
273.0245221
273.0042602
273.0129332
273.0080796
273.0238369
273.02728
273.0263424
273.0224248
273.0253153
273.0171753
273.0096812
273.0000838
273.0006322
273.0034703
273.0011166
273.0011189
273.0014432
272.9961936
272.0129872
275.83046
273.0206258
273.0021247
273.0098791
273.0072375
273.0225865
273.0296748
273.0292664
273.0200844
273.0199103
273.0153357
273.0116746
273.0025866
272.9998304
272.9999967
272.9990241
273.0017569
273.0023971
272.9960905
272.0052931
275.7390419
273.020013
272.9998712
273.0061495
273.0070986
273.0204639
273.0273292
273.0297014
273.0196059
273.0148682
273.0109345
273.0131093
273.0067159
273.0001907
272.9960117
272.9961362
273.0022399
273.0038672
272.9964586
272.016493
275.6052413
273.0231245
272.9986998
273.0032245
273.007181
273.0173046
273.0212992
273.0274154
273.0209716
273.0117093
273.0051761
273.0123645
273.0111057
273.0020271
272.9927973
272.9927204
273.0017245
273.0053209
272.9978617
272.0357256
275.4791228
273.0248405
272.9975814
273.0005346
273.0057642
273.0135073
273.0137389
273.0220993
273.0214859
273.010027
272.9999683
273.0098719
273.0139751
273.0049026
272.9917718
272.9904518
273.000838
273.0067203
273.0000872
272.0721948
275.2869429
273.0197052
272.9952628
272.9967929
273.0014419
273.0093727
273.0074252
273.0148873
273.0179811
273.008732
272.9980971
273.0068478
273.0130748
273.0073597
272.9945888
272.9915939
273.001098
273.0079611
273.0027577
272.1287541
275.102608
273.0081971
272.9916835
272.9918833
272.994323
273.004744
273.003065
273.0067202
273.0098399
273.0068409
273.0001104
273.0042528
273.0083358
273.0082196
273.0002162
272.9969977
273.0032185
273.0087087
273.0046616
272.1871068
274.8539904
272.9960634
272.9881658
272.9876079
272.9861812
272.9995086
273.0002521
272.9992461
272.9996538
273.0044821
273.0051066
273.0031564
273.0018346
273.0069989
273.0071843
273.0055909
273.0070206
273.0085938
273.0048071
272.2760931
274.6471288
272.9896148
272.9863308
272.9851859
272.9796361
272.9941386
272.9970844
272.9936322
272.9912383
273.0019882
273.0097963
273.0039124
272.9965422
273.0046352
273.0127868
273.0144178
273.0111945
273.0075304
273.0032713
272.3422142
274.3848957
272.9898168
272.986434
272.9852486
272.9765296
272.9900734
272.9933668
272.9907168
272.9873313
272.9995569
273.0113417
273.0058465
272.9957315
273.0024408
273.0150791
273.0204438
273.0143212
273.0062833
273.0012458
272.4562873
274.1760225
272.9933894
272.9868452
272.9856747
272.9769605
272.9882747
272.990368
272.990492
272.9879018
272.9968561
273.0084466
273.0074045
272.9993527
273.0019343
273.0134332
273.0209584
273.0155221
273.0064983
273.0011616
272.527522
273.8954495
272.9951592
272.9871403
272.9854368
272.9793124
272.988679
272.9895475
272.9922481
272.9906385
272.993804
273.0026759
273.0087779
273.0056366
273.0035757
273.0087168
273.0160717
273.0145433
273.0082316
273.0036079
272.6671961
273.6740139
272.9944532
272.9878982
272.9849886
272.9824187
272.9904461
272.9912507
272.9946503
272.9928546
272.9920733
272.9973587
273.0079941
273.0101439
273.0053324
273.0035191
273.0090855
273.0114354
273.0094019
273.006279
272.7384283
273.3730634
273.0002799
272.9933461
273.0015591
272.9954058
273.0129671
273.0044092
273.0125967
273.0010372
273.0003612
272.9970755
273.0079399
273.0094764
273.0055543
272.9958949
273.0011329
273.0016647
273.0067923
273.004605
272.8842664
272.2692022
274.9841367
273.1682785
275.7492777
273.986647
276.0502228
274.3796323
275.7818949
274.2055129
275.0640742
273.5983839
274.184669
272.8601316
273.394105
272.2437945
272.9609702
272.0498489
273.0076275
272.2661011
273.3133382
276.5598939
273.0380277
273.0055205
273.0040679
273.0060849
273.0271726
273.0340853
273.0387054
273.0319503
273.0175631
273.0124333
273.0254832
273.0217085
273.0056189
272.9898051
272.9924915
273.0078333
273.0161358
273.0007071
271.4946489
276.5496774
273.0295706
273.0048642
273.0040055
273.0037835
273.0252046
273.0316684
273.0332326
273.0254078
273.0169931
273.0155251
273.0220775
273.0130405
273.0013431
272.9928593
272.9961645
273.0067293
273.010624
272.9945861
271.4870625
276.5241612
273.0229633
273.0091803
273.0089263
273.0058219
273.0273679
273.0311078
273.0280897
273.0213991
273.021813
273.0231619
273.0199754
273.0044856
272.9974877
272.9980613
273.002588
273.0072648
273.0060943
272.9907185
271.4552721
276.5073428
273.0198959
273.0143982
273.01485
273.0089001
273.0291001
273.0295637
273.0232506
273.0194469
273.0278529
273.0282405
273.0166652
272.9964255
272.9923506
272.9995425
273.0051011
273.0055023
273.0011221
272.987742
271.447954
276.457134
273.0216154
273.0159155
273.0187643
273.0105348
273.0274836
273.030393
273.0241629
273.0199807
273.0290945
273.0280729
273.0144751
272.9929689
272.9884868
272.9972567
273.0035341
273.0030106
272.9983973
272.987938
271.4062553
276.4217541
273.0262802
273.0117087
273.0185597
273.0107662
273.0235144
273.0325363
273.0301437
273.0219242
273.0246881
273.0219546
273.0129817
272.9952077
272.988783
272.9936091
272.9987151
273.0003732
272.9989552
272.991537
271.4142932
276.3216815
273.029506
273.0025953
273.0128024
273.0120365
273.0201626
273.0300441
273.0341231
273.0249539
273.0189199
273.0126517
273.011144
273.0011952
272.9934359
272.990955
272.992745
272.9981201
273.0018951
272.9969688
271.39346
276.2392571
273.0319002
272.9935399
273.0051055
273.0149643
273.0194272
273.0217063
273.0317872
273.0284373
273.0159403
273.0034891
273.0076737
273.0076704
273.0007435
272.9907404
272.9875522
272.9955375
273.0047024
273.0022452
271.4277294
276.073795
273.0353584
272.9905658
272.9999457
273.0190856
273.0210817
273.009911
273.0238798
273.0325873
273.0173817
272.9979701
273.0030643
273.0123016
273.0097281
272.9944985
272.9849455
272.9931247
273.0059663
273.0057581
271.4500401
275.9433739
273.0358131
272.9935084
272.9973782
273.0190743
273.0212448
273.0012108
273.0142281
273.0333852
273.0204953
272.9968643
272.9988966
273.0130042
273.0171595
273.0010812
272.9858236
272.9919641
273.0060702
273.0073681
271.5168186
275.6950393
273.0284589
272.9973253
272.9951784
273.011292
273.0160868
272.99879
273.0079376
273.0264455
273.0201505
273.0000278
272.9970855
273.0101856
273.0186959
273.0058218
272.9903248
272.9941206
273.0064873
273.0076726
271.5949548
275.5023253
273.0139916
272.9976853
272.9922536
272.9964804
273.0060399
273.0012937
273.005635
273.0129727
273.0138881
273.0060924
273.0007377
273.0059248
273.0140922
273.0062903
272.9966841
272.9993536
273.0077891
273.0067415
271.6909623
275.18276
272.9977873
272.995189
272.9897991
272.9815604
272.9950206
273.0051568
273.0052523
272.9978692
273.0041389
273.0133962
273.0090692
273.0034716
273.0060937
273.0048497
273.0048556
273.0070459
273.0091841
273.0044203
271.8240858
274.967056
272.9884769
272.9941294
272.9893548
272.9735133
272.9880207
273.0055146
273.0037882
272.9859984
272.9953787
273.019541
273.0174443
273.0036307
272.9993704
273.004021
273.0130529
273.0147287
273.0099582
273.0007191
271.9353336
274.6230712
272.9872456
272.9955214
272.9905995
272.9736279
272.9864961
273.0014185
273.0009323
272.9823275
272.9912738
273.0204787
273.0230163
273.0065278
272.9965041
273.0038986
273.018698
273.0202632
273.0093653
272.9963509
272.1106023
274.4066577
272.9923411
272.9977772
272.9894494
272.977518
272.9884188
272.9943894
272.9977874
272.9870857
272.9914066
273.0143091
273.0233535
273.0108704
272.9984955
273.0032024
273.0189248
273.0216189
273.009216
272.994881
272.2302154
274.0387696
272.9951426
272.9982332
272.9862036
272.9801956
272.9896287
272.9886295
272.9960783
272.9940334
272.9917261
273.0030247
273.0184742
273.0155323
273.0031043
273.0011836
273.0135197
273.0183707
273.0100973
272.9978881
272.4427718
273.8135526
272.9960293
272.996429
272.9843104
272.980859
272.9885875
272.9870301
272.9966229
272.9981581
272.9902867
272.9924986
273.0105272
273.0175555
273.0065542
272.9986014
273.0057879
273.0127125
273.0107491
273.0025561
272.5661647
273.424987
273.0051796
272.9983437
273.0067289
272.9916163
273.0131504
273.0007008
273.0170628
273.0045668
272.9978907
272.9900232
273.0054084
273.0130401
273.0052143
272.9916963
272.9952536
273.0005382
273.0055288
273.0028215
272.7911092
272.004621
275.5000514
273.062148
276.4004848
273.997279
276.6708598
274.4353602
276.2160541
274.22327
275.207635
273.4969973
274.0360829
272.6649105
273.0042354
271.9792238
272.4380266
271.8561762
272.5533014
272.2569889
273.0171236
278.0597363
273.0817076
273.0138105
273.0044294
273.019874
273.0274001
273.0211593
273.033529
273.0389106
273.0248267
273.0059616
273.0028205
273.0107312
273.0141793
273.0004244
272.9838732
272.9876486
273.0021948
272.992718
270.5652017
278.0421637
273.0642206
273.0187566
273.009062
273.0126601
273.0264162
273.0290119
273.0347049
273.0316915
273.0208886
273.0106099
273.0071177
273.0071417
273.006051
272.9935379
272.9826252
272.9886913
273.0010202
272.9887285
270.5403629
278.0176866
273.0432155
273.0236645
273.013556
273.0097486
273.0310825
273.0379522
273.0340199
273.0234904
273.0190049
273.0189482
273.0154572
273.0049985
272.9961003
272.9866537
272.9863566
272.9953722
273.0021402
272.9861292
270.4885328
277.9885996
273.0254697
273.0245198
273.0134546
273.009699
273.0344433
273.0394289
273.0282585
273.0149132
273.0159568
273.0243909
273.0220395
273.0026215
272.9851472
272.9791959
272.9908304
273.0009307
273.0011029
272.9823899
270.4309638
277.9703395
273.0274139
273.0236654
273.0157327
273.0123229
273.030741
273.0373541
273.0292644
273.0140691
273.0129364
273.0239099
273.0261655
273.0020719
272.9756869
272.972712
272.9928944
273.0037308
272.9991691
272.9802633
270.3616127
277.956577
273.0466727
273.0190884
273.0203268
273.0166043
273.0215683
273.0330036
273.0379035
273.022535
273.0120023
273.0181832
273.0250751
273.0035262
272.9725824
272.9699797
272.9917894
273.0023849
272.9984863
272.98277
270.3201451
277.8904077
273.0605298
273.0077206
273.0184841
273.0204524
273.0150575
273.0249788
273.0405324
273.0327002
273.0153724
273.0102328
273.0165635
273.0029597
272.9777716
272.9738482
272.9890714
272.9972801
272.9988838
272.9897825
270.295917
277.7728004
273.0598914
272.9932059
273.0113664
273.0234464
273.0159576
273.0147245
273.0320108
273.0381449
273.0215634
273.0043655
273.0031019
272.9992443
272.9892207
272.9846436
272.9870367
272.9906113
272.9988228
272.9978725
270.3139779
277.5641573
273.0476571
272.9868437
273.0047292
273.0276318
273.0237983
273.0038156
273.0149631
273.0369009
273.0296904
273.005276
272.9912624
272.9934466
273.0022093
273.0009469
272.9886658
272.9852681
272.9975378
273.0035445
270.3706265
277.3303655
273.0353341
272.9926514
273.0013258
273.0260128
273.0283574
272.9963835
272.9995438
273.0301655
273.0376568
273.0127911
272.9861109
272.987969
273.0125208
273.0173137
272.9948706
272.9833898
272.9953323
273.0048043
270.4600109
277.0079362
273.0278924
273.0013767
272.9994725
273.0145178
273.0211628
272.9957048
272.9952578
273.0186428
273.0348874
273.0215749
272.9892138
272.9855092
273.0150962
273.0256376
273.0039686
272.9877342
272.9943507
273.0021487
270.6069915
276.7034538
273.0231565
273.0053032
272.9966421
272.9957629
273.0041352
273.0019147
273.003106
273.0064424
273.0210881
273.0245483
272.9997495
272.9901104
273.0093842
273.0217702
273.0106834
272.996701
272.9967054
272.9983761
270.7601993
276.2962517
273.0165731
273.0016812
272.9934653
272.9804084
272.9867656
273.0083419
273.0162419
272.9980595
273.0010545
273.0207296
273.0164958
273.0038402
273.0003145
273.0078859
273.0123978
273.0083874
273.0028636
272.9958748
270.9980397
275.9360292
273.0102721
272.9978283
272.990513
272.9769001
272.979841
273.0064902
273.0228976
272.9945126
272.984451
273.0128487
273.0327397
273.0212602
272.9954881
272.9916878
273.0093894
273.0188338
273.0118991
272.9964345
271.198946
275.4608411
273.0066549
272.9996018
272.9887174
272.9835487
272.983269
272.9966675
273.017261
272.9942777
272.9792217
273.0030857
273.0385752
273.0349089
272.9990054
272.9837181
273.0037973
273.0239905
273.0207867
272.9997547
271.5105641
275.0741418
273.0054406
273.0036135
272.984619
272.9903105
272.9898557
272.9842154
273.0026804
272.9976331
272.9861542
272.9959384
273.0288952
273.0382335
273.0097392
272.988809
272.9987997
273.0208158
273.0237123
273.00407
271.7258844
274.5601728
273.0040722
273.0033546
272.9784552
272.9894715
272.9925118
272.977961
272.9908632
273.0029034
272.9983566
272.9913628
273.0063823
273.0304026
273.0270085
273.0044395
272.9954392
273.0093309
273.0176663
273.0060452
272.0780224
274.1860956
273.0042074
272.9983706
272.9794333
272.9852902
272.9903685
272.9817129
272.990225
273.0083005
273.0083116
272.9894507
272.9860639
273.0174714
273.0380532
273.0184634
272.9944782
272.9951481
273.0068567
273.0052178
272.2777017
273.6624765
273.0151112
272.9992949
273.0165899
272.999386
273.0236428
273.0118513
273.0233611
273.0199716
273.0225734
272.9929569
272.9802054
273.0023158
273.029684
273.0122114
272.9892383
272.9811358
272.9948432
272.9991114
272.6418231
272.2194515
275.9825211
273.7808257
277.3338481
275.2107044
277.7923523
275.8179421
277.192031
275.2901693
275.8166038
273.9240139
274.0994883
272.4202404
272.7975803
271.2885107
272.0716253
270.9185086
272.3789083
271.5480802
273.2073536
279.3754437
273.1080123
273.0149387
273.0166211
273.0388691
273.0241941
273.0128703
273.0201199
273.0396027
273.0469688
273.0088722
272.9732693
272.9995654
273.0304902
273.0161874
272.9803291
272.9608205
272.973375
272.9718416
269.0579237
279.3775056
273.0968496
273.026873
273.0271848
273.0310233
273.0185533
273.0155171
273.0309456
273.0365899
273.0232795
272.9980754
272.9811182
272.996111
273.0066176
272.9908862
272.9718942
272.9691532
272.9822541
272.9739626
269.0269738
279.3619876
273.074394
273.0318265
273.0260843
273.02369
273.0225872
273.0255895
273.0400266
273.0295628
273.0030613
272.9957092
273.0002903
272.9983943
272.9842564
272.9676001
272.9683243
272.9816058
272.9929053
272.9783301
268.9152468
279.3501187
273.0464553
273.0253857
273.0121674
273.0167418
273.0331503
273.0399933
273.0419231
273.0174795
272.9881689
273.0042635
273.0265771
273.0057205
272.9686277
272.9525757
272.9705683
272.9918252
272.9989937
272.9778266
268.830953
279.3383398
273.0457079
273.019508
273.0045499
273.0182986
273.0348498
273.0427663
273.0419086
273.0157054
272.9902344
273.0108788
273.0373422
273.0090986
272.9640955
272.9507102
272.9749668
272.9953387
272.9982817
272.9745399
268.6628516
279.3749635
273.0753433
273.0177268
273.0094214
273.0255921
273.0278637
273.0294586
273.0368283
273.0254514
273.0091853
273.0139132
273.0228759
273.0012809
272.9688878
272.9598041
272.9780911
272.9919472
272.9939149
272.9731323
268.6003838
279.3093474
273.0959112
273.0150291
273.0169599
273.0294378
273.0184644
273.0133054
273.0279973
273.0363942
273.0266247
273.0091821
273.0029903
272.9895449
272.9746973
272.9699101
272.9789769
272.9861454
272.9900849
272.9773958
268.5045516
279.1997979
273.0869034
273.0061843
273.0207617
273.0269241
273.0156964
273.0071391
273.0182943
273.0402643
273.0379666
273.0128895
272.9886525
272.9804875
272.9810285
272.9803499
272.9796015
272.9816571
272.9891528
272.9854517
268.5452708
278.8922247
273.0473147
272.9986299
273.0182509
273.0222209
273.0213799
273.0093806
273.0061318
273.0276339
273.0418396
273.0210871
272.9851362
272.9711823
272.9831046
272.9919586
272.9878844
272.9839857
272.9912335
272.9925919
268.605362
278.6155465
273.0142737
272.9981178
273.0140206
273.0152065
273.0225732
273.0134336
272.9962858
273.0038578
273.0372475
273.0387358
272.992851
272.9624415
272.9797902
273.0019795
273.0030892
272.9933109
272.9940491
272.995235
268.766999
278.1716452
273.0097895
273.0045812
273.0102715
273.0042504
273.012145
273.0154217
272.9996168
272.9880439
273.0228938
273.0496194
273.0067396
272.9665361
272.9782558
273.00818
273.0163355
273.0024092
272.9945522
272.9923763
269.0011213
277.8688785
273.0305465
273.0068897
273.0051417
272.9919992
272.9922599
273.0135354
273.0152961
272.992734
273.0060447
273.036626
273.0182311
272.9898071
272.9866868
273.0087204
273.0206269
273.0061813
272.9930888
272.9867653
269.2694134
277.3183053
273.0470766
272.9983782
272.997316
272.9873173
272.9751298
273.0016165
273.029281
273.0078662
272.9938595
273.0071752
273.0229861
273.0194558
273.0002603
273.0026057
273.0161231
273.0075914
272.9945219
272.9842729
269.6741614
276.9224234
273.04805
272.9869987
272.9865009
272.993457
272.9738227
272.9852266
273.0296221
273.0200664
272.9876235
272.9814601
273.0210129
273.0397651
273.0119099
272.9973296
273.0081139
273.0100288
273.0020548
272.989011
270.021524
276.2050872
273.0299394
272.9845244
272.9768703
273.0058785
272.9857946
272.9738397
273.0155723
273.0183059
272.9872339
272.9744122
273.0142136
273.0462847
273.0227441
272.9983639
273.0010983
273.0124622
273.0135988
272.9996079
270.5547797
275.7434609
273.0090684
272.9886513
272.97375
273.009544
272.9960265
272.9725016
272.9941928
273.0067385
272.9965857
272.9854208
273.0035639
273.0384488
273.0344869
273.0075594
272.9959172
273.0100828
273.0209749
273.0106245
270.9200494
274.9875501
272.9987224
272.9908369
272.9755611
273.0016527
272.9940455
272.9773222
272.9841822
272.9998185
273.0106128
272.9991286
272.9898546
273.0224386
273.0438332
273.0210413
272.9941463
272.9994342
273.0164061
273.0153139
271.501899
274.5905744
273.0069483
272.9912505
272.9898618
272.9937103
272.9852394
272.9831773
272.9900959
273.0087138
273.0245674
273.0033289
272.9784893
273.0090746
273.0471504
273.0313632
272.9920073
272.9844057
273.0038857
273.0128045
271.8306837
273.8535718
273.0374529
272.9969328
273.0584686
273.0092414
273.0349311
273.0112236
273.041207
273.0294213
273.0406008
273.0008375
272.9766418
272.9961386
273.0295482
273.0181294
272.9820551
272.9698243
272.9872887
273.0012826
272.4133485
271.7595018
277.2020109
273.6541506
278.9924737
275.4682801
279.3727026
276.1749154
278.2738556
275.489915
276.1924475
273.7895658
273.711016
271.9159668
271.7860095
270.5728063
270.6840924
270.3100323
271.1750752
271.4737291
272.4850985
282.1622775
273.1227523
273.0141978
273.0398037
273.0624125
273.0165726
272.9958308
273.0185376
273.0280167
273.0174446
273.0072602
273.0022986
272.9889853
272.9562532
272.9536727
272.9900935
272.9829969
272.9690659
272.9487012
266.709585
282.2382049
273.1404747
273.0227431
273.0538072
273.0591629
273.0062412
272.9979259
273.031818
273.0274752
272.9999803
272.9871997
272.990943
272.9840373
272.9657837
272.9656631
272.9738832
272.9700503
272.9651398
272.9496549
266.6115432
282.3450828
273.1466758
273.0246034
273.0469914
273.049986
273.0103698
273.0163343
273.0414157
273.0232628
272.992992
272.9809986
272.9774015
272.9738626
272.9806049
272.9801458
272.9609505
272.959131
272.9679031
272.9598324
266.4079438
282.4022617
273.1309248
273.0151294
273.020029
273.0336874
273.0259987
273.0407734
273.0447602
273.0188625
273.0033853
272.9931509
272.9668766
272.9626366
272.9892991
272.9828778
272.9524767
272.9552237
272.9756407
272.9710445
266.1551628
282.513474
273.1271356
273.0070249
272.9967384
273.0281619
273.0374478
273.0397683
273.0344787
273.0221804
273.0175003
273.0000635
272.966286
272.9673135
272.9966391
272.9792144
272.9449111
272.9552072
272.9832984
272.9805258
265.8521504
282.5822194
273.1467968
273.0108082
272.991836
273.0323875
273.0429852
273.0133946
273.0097032
273.0306584
273.0303784
272.9933309
272.9709977
272.9788663
273.0007162
272.9772971
272.9407609
272.9559197
272.9865665
272.9857019
265.6067432
282.5977801
273.1634244
273.0261985
273.009459
273.0316553
273.0361938
272.9978311
272.9936888
273.0313387
273.033926
272.4822205
272.9695912
272.9795919
272.9976414
272.9772561
272.9425831
272.9584177
272.9868853
272.9874771
265.4166067
282.4391581
273.143544
273.0351497
273.0320834
273.0234314
273.0237741
273.0034898
272.995421
273.0229539
273.0418121
272.9957667
272.979927
272.9707204
272.9857699
272.9780551
272.9507172
272.9655553
272.9876853
272.9884737
265.3645991
282.0751552
273.0799276
273.022569
273.0360582
273.0100252
273.014924
273.0252293
273.0080787
273.0033551
273.0290624
273.0342672
272.9983453
272.961134
272.9681076
272.9763957
272.9664155
272.9803572
272.9917356
272.9889365
265.4586585
281.607572
273.0194173
273.0016071
273.0263065
272.9973485
273.005813
273.044565
273.022839
272.9815346
273.0054727
273.0458572
273.0158682
272.9590571
272.9521641
272.9719869
272.986794
273.000347
272.999119
272.9888919
265.6910345
281.0179962
273.0122999
272.9908957
273.0168129
272.9893096
272.9940365
273.0435194
273.0306125
272.9757887
272.9910335
273.0393059
273.0233064
272.9724867
272.9474796
272.9667509
273.0034475
273.0180468
273.0049021
272.986698
266.1193296
280.4881241
273.0616544
272.9948934
273.0111719
272.9919014
272.9799527
273.0183702
273.0278044
272.9914211
272.9907064
273.0184078
273.0275061
273.001309
272.9619352
272.9660179
273.0087748
273.0242434
273.0067959
272.9859982
266.6191615
279.7237055
273.1041602
272.994279
273.002107
273.0073919
272.9783812
272.9825155
273.0173425
273.0203694
273.0011319
272.9872505
273.0205468
273.0377404
272.9974671
272.9768772
273.0034708
273.0172817
273.0056955
272.9879194
267.3513923
278.9886565
273.1057239
272.9819464
272.9848861
273.0216071
272.9884371
272.9583146
273.0031143
273.0455
273.0101854
272.9593114
273.0036329
273.062575
273.0398628
272.9960831
272.9936468
273.0022919
273.0037528
272.9966477
268.0170061
277.921119
273.05618
272.9680454
272.9646603
273.0197817
272.9966187
272.9583632
272.9929185
273.0440268
273.0118154
272.9545179
272.9844609
273.0558684
273.0628983
273.0170625
272.9893953
272.9892763
273.0024071
273.0065377
268.9327487
277.0827956
272.9981511
272.9584243
272.965437
273.007546
272.9906395
272.974122
272.9887583
273.0120132
273.0070447
272.9799815
272.9796097
273.0238885
273.0529427
273.03333
272.9988247
272.9846833
272.9996905
273.0125616
269.5808171
276.0039463
272.9693532
272.9597095
272.9893892
273.0021513
272.9752331
272.9857414
272.9899933
272.9807515
273.0070452
273.0201076
272.9872601
272.9781348
273.0196458
273.0461321
273.0238461
272.9931294
272.9925035
273.0061514
270.5333694
275.3257618
272.989906
272.9743124
273.0250277
273.0168376
272.9738684
272.9852374
272.9971389
272.9775553
273.0151911
273.0528666
273.0009965
272.9467335
272.9878228
273.0580023
273.0519249
273.0055703
272.9838324
272.993441
271.0751977
274.3023428
273.0505411
273.0034596
273.139833
273.0786154
273.0857123
273.0398227
273.077272
273.0269627
273.0506847
273.0620689
273.0135529
272.9374755
272.9595747
273.0317099
273.039174
273.0018148
272.9764146
272.9842134
272.0286209
272.065632
278.2641494
274.9903221
281.1213581
277.9740911
281.8451068
279.0468433
280.2953771
277.5165484
277.2347752
274.5893933
273.7494062
271.152982
270.8366564
268.8181143
269.663886
268.2308297
270.5974953
269.874093
272.7644435
284.9179328
273.1604593
273.0310625
273.0587867
273.0683889
273.0317671
273.0258662
273.0221819
272.9737015
272.9655672
273.0249094
273.0067453
272.9314296
272.8959204
272.9344001
272.9900846
273.002329
272.9736944
272.9347548
263.6268236
285.1076903
273.1933694
273.0159306
273.0485383
273.0709647
273.0214791
272.9969362
273.0105392
273.0182223
273.0045014
272.994298
272.9806142
272.9446214
272.9255643
272.9477534
272.9681639
272.9629709
272.9543115
272.9369386
263.4549149
285.3647109
273.2290936
273.0098226
273.0426619
273.0640792
273.0165984
272.9994831
273.0140819
273.0491418