/*--------------------------------*- C++ -*----------------------------------*\
| =========                 |                                                 |
| \\      /  F ield         | OpenFOAM: The Open Source CFD Toolbox           |
|  \\    /   O peration     | Version:  5.x                                   |
|   \\  /    A nd           | Web:      www.OpenFOAM.org                      |
|    \\/     M anipulation  |                                                 |
\*---------------------------------------------------------------------------*/
FoamFile
{
    version     2.0;
    format      ascii;
    class       surfaceScalarField;
    location    "1.2";
    object      phi;
}
// * * * * * * * * * * * * * * * * * * * * * * * * * * * * * * * * * * * * * //

dimensions      [1 0 -1 0 0 0 0];

internalField   nonuniform List<scalar> 
91025
(
0.5699954187
0.07347782666
0.08304462205
0.7494234166
0.1772248341
0.2401971791
0.931649418
0.2232362434
0.3267184404
0.9237744487
0.1974125629
0.3740119728
0.6183533854
0.1032290635
0.2876888186
-0.1028362952
-0.0240611868
0.1652982073
-1.104157085
-0.1343808989
-0.01898766871
-2.079109561
-0.178122925
-0.1520372056
-2.714756265
-0.143349385
-0.252523212
-2.847679202
-0.03636370003
-0.2930323054
-2.456403863
0.1111980541
-0.3211971675
-1.729865146
0.2462342181
-0.3469247488
-0.8264027934
0.3409611027
-0.3922146117
0.07953994882
0.3773834487
-0.4347011196
0.8891933119
0.3544298503
-0.475724723
1.483407399
0.273097169
-0.4768359773
1.897806516
0.1861367544
-0.4488668331
2.150245377
0.10317497
-0.3555614303
2.262770963
0.04820751399
-0.2495963796
0.006410725468
-0.07875062004
0.621873942
0.1387754728
0.07974155278
0.7714145842
0.3305933897
0.2318469385
0.9189599281
0.4150181676
0.3147798368
0.8786471384
0.3622010697
0.3618144032
0.5572189773
0.1854209311
0.2775959545
-0.1547221725
-0.04773080791
0.1600710099
-1.125558904
-0.2465625401
-0.01927546419
-2.061118123
-0.3191722919
-0.1463604175
-2.661253013
-0.2504636579
-0.2442080078
-2.775192036
-0.05494933993
-0.2853211368
-2.38905273
0.2108759603
-0.3160778777
-1.683041855
0.4521894644
-0.3445426951
-0.8075974312
0.6252099755
-0.390309404
0.06813928562
0.6906881945
-0.4314266896
0.8539234591
0.6513892839
-0.467942284
1.438832727
0.5062994246
-0.4628173977
1.856080403
0.3494145582
-0.429344697
2.118939835
0.196032159
-0.335030028
2.242017241
0.09411412429
-0.2333628175
0.01339549875
-0.07193247576
0.7185481106
0.1868159064
0.07348251879
0.8121162077
0.4374118844
0.21623674
0.89427558
0.5455931103
0.2930194923
0.7953226096
0.4666576456
0.3398511128
0.4473306645
0.2298855775
0.2609629814
-0.2473991338
-0.07222936502
0.1538227467
-1.162112199
-0.3194686587
-0.01697066767
-2.029051838
-0.3977183385
-0.1345802031
-2.567911823
-0.2983862944
-0.2283078539
-2.649443609
-0.04618077676
-0.2702037432
-2.272020062
0.2898406962
-0.3057816481
-1.600302001
0.5899950732
-0.3387516718
-0.7740930575
0.8122486737
-0.3861420919
0.04889499257
0.8927418022
-0.4248164621
0.7929351111
0.8463762611
-0.4541365566
1.360890112
0.6650292898
-0.4379842534
1.782851905
0.4675010036
-0.3957248793
2.063153804
0.2656445775
-0.2991159328
2.204727121
0.1325557446
-0.205402609
0.01998615889
-0.05981814162
0.8468077042
0.207363423
0.06382647766
0.8643924848
0.4775807606
0.1954527337
0.8575657929
0.5889677239
0.2628853211
0.6842933983
0.4902302052
0.3110437145
0.3071274854
0.2243724949
0.2398991956
-0.3620536437
-0.09814917865
0.1476337117
-1.200110596
-0.3454869766
-0.009192475518
-1.981816637
-0.4078723076
-0.1143171281
-2.446394582
-0.2827851752
-0.2042225266
-2.490651348
-0.01207165607
-0.2474970711
-2.12625051
0.3437632908
-0.2881200069
-1.495502649
0.6496075777
-0.3269046355
-0.7315331518
0.8847099486
-0.3765431889
0.02538303591
0.9630524601
-0.4131069733
0.7169631483
0.9163838269
-0.4338729366
1.261813561
0.7265694395
-0.4058814425
1.688465889
0.5212562152
-0.3531045894
1.988525604
0.297175241
-0.2548596972
2.151898091
0.1531305056
-0.170768166
0.02271991779
-0.0453289562
0.9850936005
0.1920698234
0.05236610128
0.9175114323
0.4372809205
0.1711419244
0.8111201625
0.5286035758
0.2295974103
0.5618068734
0.4238235701
0.2806892944
0.1600672052
0.1661516341
0.2217733611
-0.4771851169
-0.1247997154
0.1466688127
-1.229802875
-0.3272228807
0.004611611008
-1.922972248
-0.3580434292
-0.08531932312
-2.315731512
-0.215293056
-0.1707121152
-2.325460765
0.04247792533
-0.2159289948
-1.977130921
0.3737664148
-0.2629495243
-1.386979758
0.6402709405
-0.3071775889
-0.6874271053
0.855003405
-0.3605214266
0.001887573819
0.9144988759
-0.3952292313
0.6392543432
0.8716867299
-0.4090811094
1.158391881
0.6925757683
-0.3701900399
1.588098086
0.5060348124
-0.3092476841
1.906396096
0.2845628031
-0.2096093296
2.09168011
0.1498317269
-0.1364939171
0.01782830598
-0.03067895962
1.11214327
0.1414673694
0.04068910202
0.9626785071
0.3128824922
0.1472297578
0.7610275233
0.366716067
0.198550501
0.4450356966
0.2691696976
0.2556403481
0.0295213101
0.06461257078
0.2116560721
-0.5720989743
-0.1471503677
0.1563495899
-1.243823663
-0.2751752441
0.03206288623
-1.855723142
-0.2655835064
-0.05001450817
-2.190408905
-0.1178413841
-0.127266041
-2.177713969
0.1090801526
-0.174925805
-1.846381289
0.3850351772
-0.2282879865
-1.292587869
0.5889215629
-0.2784717131
-0.6503521762
0.7616618484
-0.3357646626
-0.02035857961
0.7966944263
-0.3706756118
0.5661138314
0.7600912269
-0.3794236763
1.060926348
0.5975385282
-0.3340094495
1.491708923
0.4341392369
-0.2673026427
1.827550441
0.2303310512
-0.1687150005
2.034497246
0.1210191786
-0.105501239
0.004722214143
-0.0182338593
1.200510925
0.06182284924
0.0312424437
0.9877677983
0.1194101163
0.1279133594
0.7126092348
0.1268244878
0.1762490934
0.3520308229
0.04929906175
0.2411421782
-0.06884000904
-0.05517536708
0.2139319828
-0.6308999553
-0.1563111284
0.1781398814
-1.238523391
-0.1945819617
0.07075701197
-1.785285798
-0.1475786974
-0.006386905621
-2.081111318
-0.005749665837
-0.08003503731
-2.061498028
0.17647063
-0.1275591271
-1.742540294
0.387739172
-0.1877642856
-1.220667953
0.5318023684
-0.2438907543
-0.6234663589
0.6622129898
-0.3063295526
-0.04354181085
0.6705022009
-0.3421679421
0.501154287
0.6358414615
-0.3489684956
0.9754860456
0.4838106707
-0.3001686193
1.406590394
0.3431190867
-0.2319149007
1.76013422
0.1621969279
-0.1356398768
1.988595219
0.08309041577
-0.08161647315
-0.01246736744
-0.008579304605
1.233696835
-0.03145080571
0.02554776744
0.9889464047
-0.1038635573
0.1179315473
0.6791683938
-0.1397592124
0.1672481399
0.3030431229
-0.1811425188
0.2413556194
-0.1145663755
-0.1707666577
0.2289988447
-0.6464976026
-0.149432181
0.2098525063
-1.212732766
-0.0942265175
0.1188898953
-1.718762773
-0.01657638658
0.04899904707
-1.996415385
0.1150423257
-0.02719883858
-1.976367675
0.2428163124
-0.07877354451
-1.669300417
0.3980860629
-0.1427938797
-1.173353491
0.4960203585
-0.2070854529
-0.6100545305
0.5926203122
-0.2745869795
-0.06982317775
0.5793533073
-0.3133728618
0.440256501
0.5469699564
-0.3201098093
0.8989056941
0.403695384
-0.271470149
1.332872929
0.2828356374
-0.2032106764
1.706815058
0.1176264861
-0.1108700732
1.958422628
0.06048533653
-0.06373794967
-0.02423806486
-0.002187625393
1.200406388
-0.1197610057
0.02456844655
0.9636236231
-0.3137747751
0.1183709224
0.6644605859
-0.3873900423
0.1714552042
0.3033254218
-0.3918635157
0.253559241
-0.1000127617
-0.2685013782
0.2521686424
-0.6182060538
-0.1323102624
0.2460371622
-1.169330635
0.007720178899
0.1683816584
-1.661562216
0.1177381222
0.1064833368
-1.935949871
0.2346458799
0.02672820068
-1.916002919
0.3168621629
-0.03141089092
-1.618654275
0.4305660545
-0.1022155054
-1.141161723
0.4970828691
-0.1740326526
-0.6055861694
0.575187935
-0.2478960411
-0.09738397469
0.5543710032
-0.2899341468
0.383837127
0.5357867984
-0.2979703282
0.830723159
0.4032172665
-0.2507094505
1.269535574
0.3022685909
-0.1844567208
1.664161853
0.1393829727
-0.09616409524
1.938848895
0.08336528399
-0.05390566332
-0.02047629367
0.001001003169
1.109870316
-0.1906739836
0.02845388688
0.9190008869
-0.4828798142
0.128497625
0.6722738514
-0.5828814784
0.1880045117
0.3542415395
-0.5531803038
0.2748789108
-0.02704094645
-0.3379675897
0.2802014414
-0.546617508
-0.1115353076
0.2812436037
-1.109381853
0.102370705
0.2135130929
-1.614643134
0.2358359898
0.1566059395
-1.894675318
0.3461909043
0.07851825911
-1.874729959
0.3992924056
0.008649416102
-1.584169665
0.4864922842
-0.07024827013
-1.118639846
0.5371102432
-0.1509160152
-0.6060369148
0.6143407361
-0.2309790707
-0.1238452066
0.6072634996
-0.2773081341
0.332003326
0.6204830651
-0.2877427495
0.7674792618
0.5062876036
-0.2433629552
1.208235117
0.4263874459
-0.1791614809
1.620342038
0.2505212012
-0.09423697979
1.915735903
0.1679130116
-0.05259311073
0.005480646513
0.0006279376261
0.9694608558
-0.2279616425
0.0352500998
0.8564672959
-0.5754740561
0.1445098969
0.6989371189
-0.6933141637
0.2094594567
0.4454652688
-0.6451566076
0.2983841031
0.08980908775
-0.3787199484
0.3027667358
-0.4419932884
-0.1012417227
0.3071203455
-1.034964587
0.1614944711
0.2442473062
-1.569296044
0.3169551416
0.1914082106
-1.862574615
0.4384538323
0.113661408
-1.843574413
0.479589936
0.03856318134
-1.554048471
0.557121812
-0.05238164703
-1.093713216
0.6079142511
-0.1406414587
-0.5975511865
0.7020312337
-0.2272609664
-0.1370286188
0.7263458906
-0.2782578894
0.2925119746
0.7813816979
-0.2924430639
0.7109702888
0.6911819286
-0.251318548
1.143148997
0.6350319311
-0.1896686478
1.560699741
0.436295276
-0.1062333454
1.867350083
0.3047961569
-0.06134580575
0.05320167048
-0.003313919621
0.8069790877
-0.2288111837
0.04420497705
0.7888608104
-0.5855090262
0.1616397909
0.7373804035
-0.7100040245
0.2314545515
0.5676594674
-0.6750650584
0.3153752534
0.2344627832
-0.3970022374
0.3177536953
-0.3166987558
-0.1251708526
0.3178352307
-0.949367627
0.159882686
0.2588632633
-1.51966168
0.3346688027
0.2059691738
-1.834574143
0.4842367211
0.1287955508
-1.819077393
0.5383629952
0.04970509134
-1.524005761
0.628112731
-0.04788729039
-1.063449888
0.6963910016
-0.1430474355
-0.576564406
0.8180530931
-0.2345621121
-0.1343106199
0.8759797673
-0.2914030002
0.2679986051
0.9746812461
-0.3103337466
0.6606840161
0.9156696431
-0.2740501878
1.069526754
0.8829320829
-0.2156172929
1.474112826
0.6580226743
-0.1322979318
1.77698306
0.4666719306
-0.07982538735
0.1109664164
-0.01180385247
0.6368623731
-0.1985898595
0.05112334178
0.7138763361
-0.533126304
0.174437562
0.7681944295
-0.6555208545
0.2433931699
0.6827844745
-0.6587441526
0.3185757673
0.3802176128
-0.4206630013
0.3121040326
-0.1863091483
-0.2093942716
0.3073970186
-0.8549067395
0.06808673343
0.2479879768
-1.457404755
0.2612237804
0.1960098124
-1.795725016
0.4586872385
0.1202368174
-1.785779807
0.558029257
0.04305307633
-1.481160838
0.6894658484
-0.05637833871
-1.01739297
0.790156934
-0.1526765678
-0.5354174481
0.9446089612
-0.2471018204
-0.1096897326
1.032171165
-0.3087207529
0.262701805
1.165914735
-0.3341093429
0.6173523734
1.13367244
-0.3045356461
0.9855229667
1.119220462
-0.2506892207
1.355063899
0.8687092906
-0.1672524475
1.636656811
0.6191261808
-0.1046814837
0.1658348182
-0.02308176227
0.4886577068
-0.151531303
0.05540898179
0.6443955622
-0.443289407
0.1782450527
0.7874756298
-0.565084833
0.2452905596
0.7775867769
-0.6251214203
0.3072871628
0.5047620769
-0.4836460231
0.2916847287
-0.0642788366
-0.3721992198
0.2776701752
-0.7518957527
-0.1291529262
0.2192206728
-1.376379216
0.07510008672
0.1664611777
-1.73750687
0.3376021664
0.09620705291
-1.735089444
0.52146785
0.02393701394
-1.426222158
0.7334792429
-0.06925819755
-0.9593538453
0.8845586167
-0.1634940236
-0.4809726989
1.079238169
-0.256456317
-0.07130003265
1.184700726
-0.3223837909
0.2711190543
1.334336182
-0.3552606251
0.5785203573
1.310719704
-0.3347317457
0.8912299884
1.301040126
-0.2876215114
1.205927567
1.026210215
-0.2049329394
1.449611694
0.7311054901
-0.1319014062
0.2058972407
-0.03549699313
0.3627593322
-0.09884491783
0.05460620452
0.5709561113
-0.3424704461
0.1714058791
0.776549219
-0.4705659298
0.2300792909
0.8237971359
-0.6107125081
0.2804501452
0.5827401225
-0.6023458221
0.2561467729
0.03499256908
-0.6126270127
0.2371743012
-0.6384425358
-0.4301060403
0.1781493353
-1.26461471
-0.2201070585
0.1279097548
-1.636885551
0.1184356046
0.06267350521
-1.643477025
0.4213537157
0.0001968778426
-1.339086498
0.7531581399
-0.08344443219
-0.8786111604
0.9811145474
-0.1679452266
-0.4121901789
1.223837102
-0.2557770321
-0.02443427978
1.334881245
-0.3221526688
0.2861991945
1.475786125
-0.3612920127
0.540202499
1.433889929
-0.3513400106
0.7865879407
1.409063651
-0.3128880824
1.032977378
1.109857103
-0.2341312296
1.227209898
0.7872887337
-0.1533029945
0.2252761471
-0.04606890617
0.2685683249
-0.05091635016
0.05086473042
0.4971518434
-0.2534946716
0.1533769858
0.7306604705
-0.4002742189
0.2038500888
0.8113171786
-0.6327283297
0.2406508395
0.6049870746
-0.7729840172
0.2146842262
0.1072338064
-0.91387784
0.1906852556
-0.5219467021
-0.8079407777
0.1366201575
-1.117118567
-0.5960156254
0.08821079894
-1.483278672
-0.1745274075
0.03277985469
-1.499333011
0.2680991683
-0.02191674926
-1.215715146
0.7489802016
-0.0890053647
-0.7799227336
1.081353126
-0.1615672882
-0.3402255336
1.37796116
-0.2393270249
0.01546411788
1.486221271
-0.3035349438
0.2915041725
1.593584008
-0.3466994401
0.4912231797
1.507340639
-0.3465194912
0.6703376135
1.445308781
-0.3180065495
0.8467118272
1.120626554
-0.2459141631
0.9893050905
0.7892008609
-0.1629339363
0.2241173399
-0.05193735887
0.1882028017
-0.01171001049
0.04226656687
0.4073522214
-0.1842742144
0.1267962085
0.6351644598
-0.3524043525
0.1641531364
0.7272574219
-0.6789869241
0.1907951352
0.5621372151
-0.9591220666
0.1637415706
0.1408728509
-1.232654961
0.140857871
-0.4029109684
-1.205708277
0.09186726209
-0.9279939608
-0.9990618077
0.05197730049
-1.257144165
-0.4907209036
0.006599050504
-1.281372296
0.08860230969
-0.03516429653
-1.035228005
0.7309814387
-0.08671084886
-0.649978249
1.180166556
-0.1421900428
-0.2626784751
1.537715571
-0.2071432955
0.0495381299
1.639173204
-0.2637759675
0.2770298312
1.698857036
-0.3060653395
0.4244568162
1.549988631
-0.3125858547
0.5416749049
1.435301129
-0.2932463311
0.654717516
1.085277147
-0.2323485668
0.7493619331
0.7571171195
-0.1547890193
0.2105654386
-0.0513206889
0.1262569672
0.01711000304
0.03274344457
0.307004145
-0.1344443796
0.09401655353
0.4968390891
-0.3235573488
0.121854258
0.5799404488
-0.7301425846
0.1378639856
0.4609660125
-1.128714851
0.1174111579
0.1400893724
-1.515922881
0.09565344679
-0.2838134592
-1.562573243
0.05853112765
-0.7005022521
-1.363838158
0.02581853869
-0.9652584822
-0.7856734018
-0.005875050952
-0.990715506
-0.07553050159
-0.03629723085
-0.8010326219
0.708382564
-0.07071892769
-0.496171876
1.267124952
-0.1114822872
-0.1884736625
1.680931883
-0.159696613
0.05868759454
1.778741812
-0.2054551128
0.2308054822
1.788788159
-0.2413304009
0.3309956123
1.575017023
-0.2506603221
0.3997177714
1.405991362
-0.2391147226
0.4639181662
1.03278936
-0.1921541561
0.5207337651
0.7132727769
-0.1285844022
0.1930287866
-0.04338638829
0.06482568831
0.04168445296
0.0195741967
0.1860531019
-0.09355609567
0.05781269958
0.3153834778
-0.2962701281
0.0723070052
0.3747638762
-0.7628897309
0.08168188155
0.3040654405
-1.237737764
0.06594199383
0.1029330447
-1.707230642
0.05243537919
-0.1669305413
-1.808953394
0.02675859709
-0.4359232954
-1.619578712
0.008287919513
-0.6079905832
-0.9930934304
-0.01250644693
-0.6269806665
-0.1956618699
-0.0276388366
-0.5061436582
0.6897018954
-0.04762464915
-0.3092014216
1.328236282
-0.07018014565
-0.109597619
1.784859243
-0.1004518401
0.05145985461
1.879172759
-0.1293426719
0.15873472
1.853849582
-0.1543379763
0.213920049
1.58804981
-0.162698705
0.2452175338
1.375477148
-0.1568262926
0.2737307415
0.985514341
-0.1274369326
0.3012421442
0.6745841379
-0.08519726198
0.1785029621
-0.02924479019
0.02347216164
0.007324301329
0.06894583744
0.01943595873
0.1156336911
0.0258073043
0.1362407822
0.02779625936
0.1107022947
0.02385661489
0.03945120288
0.01742112461
-0.05712060351
0.009696380359
-0.153402953
0.001702700361
-0.2152618546
-0.004200212876
-0.2222847116
-0.01054285922
-0.1792454176
-0.01634242522
-0.1087685304
-0.02515911398
-0.03634079813
-0.03510523795
0.02184711979
-0.04607097811
0.05940389274
-0.05535434145
0.07576324544
-0.05919019754
0.08296363294
-0.05755440499
0.08841050224
-0.0471848873
0.09617818835
-0.03160918829
-0.01088739838
0.8892398687
0.06118899281
0.112421079
0.9673935768
0.143469354
0.3543925123
0.9981114565
0.1757339261
0.4683271334
0.8159369066
0.147174344
0.5611630859
0.3563646046
0.0630305167
0.4302910836
-0.4390945867
-0.04512985355
0.2594513907
-1.409773831
-0.1306020889
-0.01041151259
-2.305094901
-0.1579461478
-0.1790824697
-2.868494341
-0.1138968052
-0.2901035766
-2.960167357
-0.01009055299
-0.2979697257
-2.568687526
0.1286260142
-0.2863198597
-1.84949878
0.2560182588
-0.2783591277
-0.9363255653
0.3509241455
-0.3101252076
0.004921700374
0.3951566628
-0.3529455059
0.8883898059
0.3892609834
-0.4175299159
1.579168445
0.3348072413
-0.4290776596
2.102060545
0.2645895894
-0.4317275154
2.441592741
0.1854307498
-0.3345434562
2.626589623
0.1112870447
-0.2618940553
0.03372359475
-0.07204920524
0.9308667077
0.1138152832
0.1056333555
0.9825451421
0.2675251286
0.3384841762
0.983271365
0.3269946708
0.4452176104
0.7748475047
0.2723442813
0.5375655988
0.3051267969
0.1172466109
0.4106357892
-0.4788241685
-0.07936591672
0.2494495059
-1.422089676
-0.2316678462
-0.008369372259
-2.28173506
-0.2767335151
-0.1684595027
-2.814674311
-0.192058744
-0.2744723899
-2.890682338
-0.002439578929
-0.2842802343
-2.503308497
0.2500108688
-0.2777990017
-1.801508891
0.4780050023
-0.2764060518
-0.9128899509
0.6498058197
-0.3111582749
0.002820824338
0.7285280576
-0.3539856572
0.8644141369
0.7184501224
-0.4126607493
1.543297152
0.6191449738
-0.4145807366
2.061300551
0.4915070369
-0.4084077228
2.40019505
0.343429069
-0.3084212397
2.585333414
0.206618805
-0.240711267
0.06172996354
-0.0630095749
1.008296332
0.1495389163
0.09318117547
1.01145168
0.3542521316
0.3086357411
0.9561628363
0.4307533118
0.40310623
0.6999127371
0.3557577815
0.4944342288
0.2132672502
0.155351075
0.3762780123
-0.5508101564
-0.09600240077
0.2330286966
-1.444189066
-0.2808120681
-0.004403551361
-2.240992462
-0.3275522304
-0.1467979549
-2.720472787
-0.2083100945
-0.2454669666
-2.76949444
0.03509756755
-0.2580819149
-2.390200078
0.3574999409
-0.2616312187
-1.717668934
0.6407019943
-0.2704459249
-0.8719403654
0.8586430145
-0.3115402504
0.0002858947108
0.9536538683
-0.3536598154
0.8224251833
0.9403667624
-0.4030325302
1.479892317
0.8104782867
-0.3882638687
1.989423057
0.6469977222
-0.3675285689
2.32711917
0.4495865174
-0.2620152762
2.512825213
0.2716510034
-0.2039218764
0.07908777687
-0.04666630743
1.110941699
0.1618939366
0.07573934417
1.050341891
0.3849272153
0.2693405324
0.9202962897
0.4645452773
0.3477180928
0.6021847094
0.3789816399
0.4394648461
0.09909702847
0.1665953937
0.3345305769
-0.6382997578
-0.09519584119
0.2173419889
-1.466682706
-0.2716879287
0.007324924528
-2.184581513
-0.3006418314
-0.1115715162
-2.599995666
-0.1575581971
-0.2002135109
-2.617772715
0.1042614391
-0.2191472065
-2.251253802
0.4441033102
-0.2344290479
-1.613933583
0.7325905635
-0.2569646966
-0.8220176435
0.9599896522
-0.306271319
-0.004682796516
1.050063456
-0.3492502126
0.7686721765
1.032380085
-0.3877414759
1.397752601
0.8859569384
-0.3544034407
1.895806741
0.709956092
-0.3160571174
2.231149663
0.4868159589
-0.204842758
2.4177138
0.2954340821
-0.1580460412
0.08198162656
-0.02703573733
1.221265103
0.1457154893
0.05671281561
1.091270455
0.3469713354
0.2257015428
0.8793179377
0.4140773718
0.2892704002
0.4997068073
0.3330048833
0.3835936472
-0.01521075586
0.1414346588
0.2970679102
-0.7238096696
-0.08084611308
0.2106361196
-1.479718827
-0.2112795322
0.03162014192
-2.117259676
-0.2076037516
-0.06928111798
-2.47025703
-0.05677015695
-0.147547775
-2.460029446
0.1959024473
-0.1689060989
-2.109256506
0.5075506097
-0.1990879945
-1.507844147
0.75779719
-0.2339130126
-0.7721490296
0.9612302573
-0.2931691789
-0.01287019578
1.026457656
-0.3365706155
0.7095471643
1.00246593
-0.3665539131
1.30800964
0.8506537753
-0.3160695203
1.793779914
0.6810429241
-0.2630261959
2.126492402
0.4537314331
-0.1457873419
2.315490871
0.2757906617
-0.1123049252
0.06905603242
-0.006519780348
1.321930753
0.1011595356
0.03798493208
1.128080037
0.2394907718
0.1855002907
0.8415014599
0.2803529268
0.2363440919
0.4106761139
0.2167070444
0.338523575
-0.1198860089
0.08003606694
0.274325504
-0.7874828433
-0.0583357844
0.2208827446
-1.475027418
-0.1190453549
0.07338349909
-2.044316622
-0.07763128314
-0.01579650726
-2.347122069
0.07345548686
-0.08577652377
-2.320219565
0.2928340228
-0.1122399516
-1.986000099
0.5463156769
-0.1506943113
-1.417801915
0.7326226968
-0.1994623338
-0.732834073
0.8895049996
-0.2681118281
-0.02717423063
0.9222738283
-0.3143942182
0.6485166836
0.8941126306
-0.3380558684
1.218341258
0.7430036781
-0.2762795299
1.692676971
0.586643883
-0.2121008763
2.025618888
0.3680914839
-0.09227340665
2.220588785
0.2218442309
-0.07038591164
0.04270125428
0.009453575003
1.389803518
0.03358359322
0.02416278459
1.15087661
0.07573321476
0.1556939542
0.8115084422
0.07940460496
0.2012746745
0.3480443974
0.04250883535
0.3141936887
-0.1839948284
-0.006424349638
0.2750217514
-0.81643483
-0.03518604831
0.251499347
-1.450834002
-0.01360039391
0.1306747136
-1.971474991
0.06587675444
0.05346601807
-2.242553008
0.2132549817
-0.01885612652
-2.212700199
0.3791063974
-0.05165308641
-1.891992872
0.5648138357
-0.09962274375
-1.352310606
0.6830043361
-0.1576435032
-0.7069928381
0.793927322
-0.2361668464
-0.04722314576
0.7950564645
-0.2854678738
0.5880746188
0.7620160705
-0.3065834143
1.133221265
0.6079645967
-0.2380437179
1.599856177
0.4650631731
-0.1684392094
1.939198548
0.2611389038
-0.04737891523
2.145331862
0.1562360826
-0.03698748114
0.01120903907
0.02249325983
1.411333562
-0.04366207632
0.01745639698
1.153916306
-0.1107856354
0.1442874085
0.796032475
-0.1447847158
0.1924020527
0.3273082901
-0.1495637232
0.3185397155
-0.1949507699
-0.1019867528
0.3013605085
-0.8033021791
-0.01988662687
0.3007936483
-1.408771109
0.08634859994
0.2026635283
-1.903588561
0.2043084219
0.1352371495
-2.165115669
0.3363064485
0.06066424904
-2.138310752
0.4468332346
0.01130266308
-1.82983299
0.5681763072
-0.0468321342
-1.314135916
0.6347005383
-0.1130336715
-0.6970458896
0.7089610017
-0.2014683071
-0.07423750346
0.6824764416
-0.2561172181
0.5269440928
0.6477104857
-0.2772122153
1.05252046
0.4916194921
-0.2071445786
1.516548337
0.3663721958
-0.1344768351
1.869148324
0.1753838659
-0.01500973527
2.092636927
0.1048953848
-0.01193670342
-0.0151724142
0.03103389481
1.377090167
-0.1173565799
0.01943108608
1.133741213
-0.287479743
0.1530333741
0.796148708
-0.358292761
0.2097454361
0.3500501144
-0.3370838838
0.3476643504
-0.1521060832
-0.2016528996
0.3462504557
-0.7485869127
-0.01823625246
0.3615927909
-1.348357084
0.1616877367
0.2785050548
-1.845073359
0.3112686774
0.2178739601
-2.113739699
0.4309957095
0.140117334
-2.091510176
0.4958134944
0.07964794769
-1.794773748
0.569910924
-0.002138153987
-1.294101535
0.6033536057
-0.07777070504
-0.6991744262
0.6567876993
-0.1755657025
-0.1060381679
0.6168085473
-0.2352774627
0.466343711
0.5935189149
-0.2574207668
0.9772021063
0.4418680721
-0.1872878552
1.443739638
0.3370172466
-0.1142163757
1.815205301
0.1486008146
0.001992104428
2.060725731
0.09532401448
0.0009996740773
-0.02644117198
0.03583904121
1.294051826
-0.1761063988
0.02973217744
1.095393737
-0.4322154091
0.1788741858
0.8121634642
-0.5356152389
0.2492277757
0.4139092933
-0.4924712974
0.3958264933
-0.06170594532
-0.2947227451
0.4033002475
-0.6581485762
-0.03654759601
0.4249524775
-1.270091858
0.1993512958
0.3507295714
-1.792553575
0.3691261093
0.2912170786
-2.081195624
0.4846223478
0.2087910034
-2.06718047
0.5266394079
0.1353747003
-1.775930301
0.5773528999
0.03544011288
-1.283999462
0.5982019381
-0.05786534844
-0.7075880004
0.6519149786
-0.1647321217
-0.1382337013
0.619922312
-0.2309129145
0.4087942552
0.6254206788
-0.2554501502
0.9067658468
0.4875840362
-0.1879422175
1.375217175
0.4047531972
-0.1149142208
1.766206737
0.2070073558
-0.0003454591675
2.034445393
0.1454483789
0.0007840203408
-0.01610972729
0.03469784798
1.167580104
-0.2088909755
0.04490487635
1.037753062
-0.5163190531
0.2159233878
0.837530056
-0.6457918872
0.2987007299
0.5108962905
-0.6046770248
0.4489423484
0.0644401735
-0.372147331
0.4555950912
-0.5381510981
-0.08299217204
0.4769304287
-1.181846025
0.1852920796
0.402573542
-1.741657494
0.3703994886
0.3421561435
-2.057844292
0.4951588349
0.2530254907
-2.053051703
0.538918624
0.1675785443
-1.761874298
0.5937317208
0.0519209201
-1.273030645
0.6250899301
-0.05733536664
-0.7098156028
0.7010179611
-0.1745753908
-0.1598509242
0.6966049577
-0.2481281288
0.3622913045
0.7413193328
-0.2767625935
0.8437255371
0.6215405661
-0.2133289409
1.306329783
0.562302842
-0.1412826244
1.709787258
0.3445902205
-0.0273681442
1.99509476
0.2504738228
-0.01599543499
0.01575629305
0.02780332221
1.019333151
-0.2150045738
0.06317681636
0.9711401192
-0.5392848653
0.2546965149
0.8661202374
-0.6871959668
0.3510811951
0.6200844181
-0.6711796376
0.4934812826
0.2069407123
-0.4430796592
0.4953783349
-0.4053261099
-0.1734276249
0.5059741388
-1.087916336
0.1024005839
0.4283143796
-1.687363888
0.3029616888
0.3629937095
-2.031549319
0.4571530143
0.2685973488
-2.036278445
0.5313650973
0.1738997404
-1.741924476
0.6205511199
0.0457363422
-1.252386072
0.6850295876
-0.07575325446
-0.6985067672
0.8008037885
-0.2028864823
-0.1665513742
0.8324889883
-0.284922078
0.3286514424
0.9159071923
-0.3201963163
0.7865159651
0.8161924869
-0.2640501637
1.230871335
0.7768012585
-0.194286419
1.632387686
0.5322831689
-0.07947832795
1.923011777
0.3893730893
-0.05060957679
0.06221622731
0.0138047669
0.8597377321
-0.198230011
0.07723391178
0.8936616511
-0.5180450962
0.2839141353
0.8821545016
-0.6797312989
0.3859573963
0.7184287251
-0.7075241584
0.5172123189
0.3446358262
-0.5279674081
0.501744082
-0.2745192409
-0.3231573755
0.4993713327
-0.9864314366
-0.06122471072
0.4163854203
-1.619048758
0.1568339185
0.3489267508
-1.98871477
0.362084605
0.25049787
-2.001715315
0.4993023399
0.153331831
-1.703245769
0.6560752886
0.01917048432
-1.212089172
0.7751380349
-0.1063745779
-0.667390142
0.9419440472
-0.2406680076
-0.1545637052
1.007831266
-0.3302467219
0.3100624917
1.123669014
-0.3736014293
0.7345801108
1.039910123
-0.3281737535
1.147023137
1.012427824
-0.2628342098
1.527731219
0.7368479499
-0.1468296505
1.809351798
0.5384081947
-0.09632443606
0.1137404692
-0.004630851182
0.7097614995
-0.1675010498
0.08741888673
0.8130369993
-0.4691552606
0.2968477468
0.8822392684
-0.6465038823
0.4021553178
0.7932726099
-0.7342945256
0.5146064346
0.4567726611
-0.6450186576
0.485036304
-0.1552895743
-0.5356316584
0.4628649011
-0.8768458562
-0.3094971827
0.3731380352
-1.527691647
-0.07535307482
0.3020497289
-1.916087878
0.2026964238
0.2083916707
-1.936300569
0.4390673048
0.112845484
-1.636812753
0.6980280365
-0.01428622524
-1.149676571
0.8915895253
-0.1398955147
-0.6184998876
1.117363395
-0.2753076551
-0.1295336888
1.21052967
-0.370842306
0.3004233065
1.346167047
-0.4237640805
0.682700781
1.266453218
-0.3926786153
1.050478902
1.237461731
-0.3351414399
1.392304666
0.9261206313
-0.2192191799
1.64972604
0.6731184803
-0.1464032163
0.1610953227
-0.0275295124
0.5715630132
-0.1308315642
0.08755324774
0.7215833348
-0.4089831192
0.2903240454
0.8508065065
-0.6044865965
0.385880604
0.8214498591
-0.7718369576
0.4805130883
0.5252304589
-0.8020521739
0.4359947717
-0.05739968301
-0.8042405916
0.4041731874
-0.7574795012
-0.6311517037
0.3086254652
-1.4025677
-0.385136847
0.2360152793
-1.794809985
-0.02203686882
0.1448709768
-1.82096212
0.3462098963
0.06413781269
-1.529398292
0.7410607126
-0.04881489116
-1.058101026
1.029262594
-0.1647960175
-0.5510585009
1.320065624
-0.2947929875
-0.09450101556
1.434725269
-0.3914293204
0.2953371483
1.572011699
-0.4514640414
0.6276055629
1.477043526
-0.4361532972
0.9394543053
1.429131631
-0.3892824818
1.228513493
1.078704354
-0.2784182753
1.449216901
0.777833654
-0.1876990182
0.1981193764
-0.04776355946
0.4508991248
-0.09610207822
0.0832791466
0.6224048823
-0.3528661433
0.2635007143
0.7840185622
-0.572207202
0.349220354
0.7957179165
-0.8264452509
0.420193668
0.5421435768
-0.9889571461
0.3732239868
0.01266905539
-1.110670325
0.3314886777
-0.6312874187
-1.00237951
0.2419954256
-1.23566326
-0.7442415527
0.169375749
-1.611870704
-0.2865396928
0.08992251678
-1.643179757
0.2257136401
0.01883057792
-1.374723425
0.7757319614
-0.07207129093
-0.9380116639
1.178609966
-0.1744468764
-0.4720026245
1.537252805
-0.2906093231
-0.0600363003
1.668040723
-0.3838090121
0.282535612
1.790536346
-0.4482485014
0.5590166201
1.661379373
-0.4470668086
0.8093653098
1.578826171
-0.4130071365
1.038913033
1.187417634
-0.3113754342
1.216482308
0.8479964311
-0.2116888826
0.2225401772
-0.06105825063
0.336408913
-0.06627672053
0.06961975466
0.5045392345
-0.3061656419
0.2207907694
0.6709330588
-0.5476678638
0.2852878276
0.705789758
-0.8903451341
0.3388535029
0.5024898887
-1.178714181
0.2890933892
0.05741714351
-1.419267108
0.2499254189
-0.4964414133
-1.374732962
0.1669785181
-1.023265181
-1.109914557
0.107336656
-1.356106557
-0.5607500054
0.03968177702
-1.39129143
0.08878040268
-0.01353286613
-1.160687242
0.79866352
-0.08437746181
-0.7819495845
1.321286107
-0.1639935911
-0.3801526943
1.752246859
-0.2607897277
-0.02878474523
1.896816392
-0.3422506758
0.2565088702
1.994411446
-0.4042471338
0.473092947
1.818105186
-0.4133956776
0.6604854381
1.689637569
-0.390660533
0.8296127777
1.257969439
-0.3052852465
0.961797919
0.8887936636
-0.2081175017
0.2366578663
-0.06466440336
0.2340430805
-0.04373908383
0.05500250602
0.3751071247
-0.2690224468
0.165593867
0.5181508054
-0.5298759343
0.2149918448
0.5586626004
-0.9455164487
0.2478246054
0.4105408012
-1.34178827
0.2104413623
0.07264023736
-1.683082921
0.1724276842
-0.3562148884
-1.698311494
0.1100844877