/*--------------------------------*- C++ -*----------------------------------*\
| =========                 |                                                 |
| \\      /  F ield         | OpenFOAM: The Open Source CFD Toolbox           |
|  \\    /   O peration     | Version:  5.x                                   |
|   \\  /    A nd           | Web:      www.OpenFOAM.org                      |
|    \\/     M anipulation  |                                                 |
\*---------------------------------------------------------------------------*/
FoamFile
{
    version     2.0;
    format      ascii;
    class       volScalarField;
    location    "1.2";
    object      T;
}
// * * * * * * * * * * * * * * * * * * * * * * * * * * * * * * * * * * * * * //

dimensions      [0 0 0 1 0 0 0];

internalField   nonuniform List<scalar> 
30538
(
273.9029248
273.009152
273.014001
273.0215341
273.0308643
273.040363
273.0472265
273.0488464
273.04423
273.0328491
273.0167178
272.9985874
272.9810111
272.9648087
272.9519873
272.9445564
272.9441294
272.9515414
272.9663778
272.5161099
273.8980834
273.0078798
273.0125731
273.0201091
273.0295288
273.0391176
273.0459541
273.0474023
273.0426124
273.0311871
273.0152288
272.9975523
272.9804918
272.9648167
272.9524064
272.9451162
272.944601
272.9517476
272.9661708
272.5174299
273.8891899
273.0071656
273.0115447
273.0190414
273.0285475
273.0382208
273.0449597
273.0461154
273.041061
273.0296324
273.0141228
272.9973427
272.9812387
272.9665192
272.9548176
272.9477204
272.9469794
272.9536076
272.9673656
272.5207957
273.8760877
273.0062899
273.0101968
273.0175208
273.0269747
273.0366185
273.0431228
273.0439307
273.0386509
273.0274772
273.0127976
272.9973386
272.9825212
272.9690352
272.9581236
272.9511062
272.9499358
272.9558078
272.9687083
272.5250863
273.8575675
273.0053299
273.0086375
273.015559
273.0247387
273.0341243
273.0402429
273.0407439
273.0354306
273.0249116
273.0115348
272.9977838
272.9845248
272.9723198
272.9620301
272.9547718
272.9528987
272.9578363
272.9698366
272.5305524
273.8357415
273.0043205
273.0069192
273.0131473
273.0217856
273.0306286
273.0362756
273.0365679
273.0315941
273.0221966
273.0106147
272.9988936
272.9873675
272.9762208
272.9661553
272.958215
272.9553732
272.9592945
272.9705102
272.5361442
273.8078175
273.0032519
273.0050594
273.0103449
273.0181634
273.0261751
273.0312707
273.0316211
273.0273894
273.0196335
273.0103277
273.0007207
272.9908464
272.9803882
272.9700428
272.9610739
272.9570262
272.959968
272.9706245
272.543456
273.776906
273.002195
273.0031712
273.007437
273.0141368
273.0209921
273.0254898
273.0261529
273.0231423
273.0175413
273.0107572
273.0032634
272.9947469
272.9845241
272.9734747
272.9631987
272.9577389
272.9598111
272.9701693
272.5516673
273.7387938
273.0013106
273.00156
273.0046903
273.0099714
273.0154458
273.0193149
273.0205158
273.0192032
273.016123
273.0119667
273.0063548
272.9987396
272.9882826
272.9761967
272.9644324
272.9575851
272.9590075
272.9693375
272.5622902
273.7002093
273.0007809
273.0004421
273.0024003
273.0060326
273.0100123
273.0133085
273.0151547
273.0158629
273.015491
273.0138087
273.0097127
273.0024837
272.9913638
272.9780235
272.9648259
272.9568315
272.9579002
272.9684282
272.5752987
273.6544675
273.000956
273.0002905
273.0011227
273.0029038
273.0052503
273.0079548
273.0105162
273.0132774
273.0155645
273.0160307
273.012997
273.0056734
272.9935824
272.9789788
272.9646898
272.9559626
272.9569659
272.9677978
272.5933245
273.6088503
273.0021935
273.0015928
273.0012637
273.0011556
273.0016211
273.0035229
273.0067385
273.0114836
273.016065
273.0182688
273.0158647
273.0081384
272.9950743
272.9794551
272.9645724
272.955634
272.956777
272.9678307
272.6154287
273.556178
273.0044459
273.0043645
273.0030321
273.0010302
272.9993808
273.0001894
273.0038667
273.0102507
273.016639
273.020117
273.0180476
273.0098944
272.9960868
272.9798671
272.9649561
272.9563344
272.9577111
272.9687574
272.6446222
273.5027736
273.0073551
273.0081307
273.0061664
273.002292
272.9985143
272.9980549
273.0018196
273.0092261
273.0168543
273.0211707
273.0192968
273.0109206
272.9968299
272.9806265
272.9662754
272.9584108
272.9600315
272.9707288
272.6776522
273.4410181
273.010255
273.0120537
273.009743
273.0043107
272.9987911
272.9970153
273.0003572
273.0080515
273.0163001
273.0210596
273.019363
273.0111407
272.9974167
272.9819663
272.9687714
272.9619753
272.9637607
272.9737204
272.7187762
273.3763291
273.0122492
273.0148561
273.0125039
273.0061924
272.9996691
272.9968529
272.9994231
273.0065648
273.0147565
273.0195561
273.018127
273.010539
272.9979364
272.984008
272.9725221
272.9669479
272.9687501
272.9775683
272.7616806
273.3018381
273.012581
273.0155771
273.0134581
273.0071798
273.0006008
272.9972871
272.9989909
273.0050411
273.0122945
273.0167144
273.0156248
273.0091434
272.9984046
272.9867177
272.9774031
272.9731135
272.9747621
272.9820759
272.812996
273.2227209
273.0109448
273.0137204
273.0120628
273.0067884
273.001148
272.9980341
272.9989681
273.0035201
273.0091629
273.0127392
273.0120153
273.007063
272.9988551
272.9900371
272.9831824
272.9801532
272.9814758
272.9869823
272.8627785
273.1365689
273.0077003
273.0100544
273.0092065
273.0060188
273.002247
273.0000591
273.0001999
273.0027092
273.0060147
273.0081642
273.0077236
273.004486
272.9992509
272.9935111
272.9894232
272.9875389
272.9886829
272.9921423
272.9201838
273.1712313
273.2410372
273.4426072
273.5019512
273.6112832
273.6012191
273.6179131
273.5616394
273.5002873
273.415726
273.2826549
273.1868207
273.0030294
272.9429615
272.7587941
272.795605
272.6667485
272.8273036
272.7715517
272.9883164
274.0246807
273.0121199
273.0167861
273.0233227
273.0309149
273.038876
273.0450066
273.0464702
273.0425144
273.0325814
273.0186857
273.0032715
272.9883702
272.9743378
272.9625778
272.9548396
272.9530975
272.9585866
272.9703896
272.4525669
274.0199261
273.0106719
273.0150553
273.0214542
273.0290237
273.0369664
273.0430245
273.0444073
273.0403647
273.0304561
273.0167789
273.0018027
272.9873624
272.973831
272.9625
272.95498
272.9532344
272.9585444
272.9700683
272.452852
274.0111533
273.0096197
273.0134628
273.0195945
273.0270479
273.0349011
273.0407918
273.0420023
273.0378251
273.0280436
273.0148454
273.0007421
272.9871955
272.9746036
272.9640281
272.9568482
272.9550518
272.9599969
272.9710199
272.4543936
273.9981034
273.0082991
273.0114248
273.017139
273.0242727
273.0319075
273.0375056
273.0384489
273.0341649
273.0247469
273.0123987
272.9995842
272.9873136
272.9759742
272.9662932
272.9594025
272.9574076
272.9617942
272.9721386
272.4566689
273.9798291
273.0068926
273.0092101
273.0143294
273.0209127
273.028136
273.0332602
273.033931
273.0296779
273.0209305
273.0098926
272.9987256
272.9880358
272.9780543
272.9691719
272.9623292
272.9598847
272.9635422
272.9731532
272.4598577
273.9572804
273.0055204
273.0070076
273.0113457
273.0172366
273.0237806
273.028313
273.0287826
273.0248027
273.0170669
273.0077742
272.9985306
272.9895786
272.9808071
272.9723875
272.9652136
272.9620336
272.9648679
272.9738263
272.4642426
273.9289865
273.0042406
273.0049421
273.0083916
273.0134841
273.0191365
273.023012
273.0234007
273.0199762
273.0137076
273.0064567
272.9992044
272.9918745
272.9839107
272.9754921
272.9676268
272.9635134
272.9655493
272.9740344
272.4700061
273.8963922
273.0032141
273.0032628
273.0058427
273.0099801
273.0145823
273.0177596
273.0182051
273.0157426
273.0112935
273.006186
273.0007325
272.9946613
272.9870534
272.9782147
272.9693901
272.9642109
272.9655265
272.9737591
272.4790508
273.8563086
273.0025965
273.0022015
273.0039504
273.0069738
273.0104625
273.0130398
273.0136977
273.0124853
273.0100262
273.0069733
273.0029994
272.9976848
272.9899531
272.9803311
272.9703388
272.9641053
272.9648854
272.9731039
272.4900837
273.8136562
273.0024829
273.0019177
273.0029259
273.0047745
273.0071267
273.0092037
273.0102391
273.0103979
273.0098726
273.00866
273.0057372
273.0006467
272.9923251
272.9816668
272.9704922
272.9633923
272.9638937
272.9723123
272.5067598
273.7633001
273.0031636
273.0027669
273.0031295
273.0037665
273.0048793
273.0064246
273.0078777
273.0094454
273.0106868
273.0109138
273.0085959
273.0032522
272.9940068
272.9822676
272.9701674
272.9625351
272.963013
272.9717454
272.5274624
273.7103797
273.0048044
273.0049816
273.0047968
273.004168
273.0038571
273.004664
273.0064626
273.0093295
273.0120499
273.0133029
273.011209
273.0053115
272.9950883
272.9824783
272.9698992
272.9621659
272.962809
272.9717955
272.5562234
273.6496352
273.0072106
273.0082918
273.0077217
273.0058452
273.0038841
273.0037714
273.0057206
273.0095919
273.0134281
273.0153352
273.0132486
273.0067846
272.9958278
272.9827121
272.9701743
272.9627768
272.9636652
272.9726816
272.5902478
273.5858196
273.009982
273.0120959
273.0113482
273.0082474
273.0046485
273.0034814
273.0053065
273.0097376
273.0142977
273.0165786
273.0144683
273.0076838
272.9964318
272.9833283
272.9713302
272.9646102
272.9657517
272.9744953
272.6316713
273.512933
273.0124956
273.0156111
273.0147487
273.0105741
273.0056807
273.0034626
273.0048782
273.0094171
273.0142889
273.0167497
273.0146917
273.0079746
272.9969801
272.9844938
272.9735184
272.9677157
272.9690482
272.977189
272.6785358
273.4355401
273.0138821
273.0176483
273.0167941
273.0120263
273.0064476
273.0034192
273.0042709
273.0084036
273.013233
273.0157186
273.01384
273.0076184
272.9975303
272.9862876
272.9767606
272.9720123
272.973411
272.9806117
272.7302798
273.3480207
273.0135991
273.0175172
273.0167577
273.012031
273.0065041
273.0031841
273.0035106
273.0069418
273.0111973
273.0135032
273.0119687
273.0066454
272.9980764
272.988654
272.9809181
272.9772833
272.9785918
272.9845505
272.7873049
273.2555245
273.0114307
273.0148608
273.0142763
273.0102996
273.0056359
273.0026475
273.002601
273.0051324
273.0084137
273.0102973
273.0091976
273.0051398
272.9986198
272.9915083
272.9858048
272.9832661
272.984325
272.9887928
272.8456427
273.1560616
273.0078059
273.0106325
273.0104459
273.0082092
273.0050396
273.0030331
273.0025274
273.0037759
273.0055525
273.006575
273.005862
273.0031152
272.9989246
272.9941297
272.9907757
272.989093
272.9902109
272.9930176
272.9086156
273.2095159
273.2621447
273.5251611
273.5690677
273.7288672
273.6928125
273.7362464
273.6411936
273.5757915
273.4523982
273.2946568
273.1791958
272.9642729
272.9115042
272.6928313
272.7655179
272.5999599
272.8185789
272.7219506
273.004842
274.1982215
273.0159513
273.0196328
273.0240297
273.0284405
273.0333618
273.0379508
273.0392394
273.0364404
273.0292331
273.0192517
273.0082586
272.997445
272.9866847
272.976839
272.9694495
272.9665977
272.9697319
272.9776693
272.3196273
274.1939293
273.0143796
273.0177142
273.0218323
273.0260998
273.0309174
273.0353989
273.036579
273.0337333
273.0266084
273.01686
273.0062574
272.9958703
272.9856172
272.9762403
272.969156
272.9663977
272.9694645
272.9771668
272.318993
274.1867666
273.0130992
273.0157892
273.0194044
273.0233651
273.0279246
273.0321774
273.0331475
273.0302266
273.0232949
273.0140505
273.004232
272.9947214
272.9854417
272.976907
272.9703395
272.9677106
272.970598
272.977953
272.3178338
274.1746112
273.0114522
273.0133049
273.0162585
273.0197631
273.023891
273.0277138
273.0284053
273.0254342
273.0188574
273.0104345
273.0017806
272.9935681
272.9856183
272.978138
272.9721428
272.9695636
272.9721244
272.9789797
272.31825
274.1578792
273.0096993
273.0106403
273.0128599
273.0157338
273.019289
273.0225039
273.022847
273.0199103
273.0139191
273.0066405
272.9994637
272.992848
272.9863944
272.9799669
272.9744116
272.9717035
272.9737771
272.980043
272.3184359
274.1354942
273.0080551
273.0081591
273.0096518
273.0117981
273.0146579
273.017146
273.0171212
273.0143198
273.0091775
273.0032868
272.9977673
272.9927959
272.9877583
272.9821712
272.9767837
272.9737238
272.9752012
272.980903
272.3216522
274.1069317
273.0066983
273.0061646
273.00701
273.0084423
273.0105287
273.0122663
273.0119094
273.0094039
273.0052946
273.0009221
272.9969922
272.9934259
272.9894399
272.9843249
272.9787887
272.9752007
272.9760773
272.9813543
272.3271424
274.0731389
273.0058328
273.005002
273.0053769
273.0061491
273.0074447
273.0085079
273.0079367
273.005795
273.0027246
272.9998004
272.9971802
272.9945768
272.9910979
272.9860383
272.9800976
272.9759295
272.9763022
272.9813526
272.3365731
274.0300021
273.0055771
273.0048442
273.0049896
273.0052462
273.005835
273.0063346
273.0056851
273.0039397
273.0017342
272.9999467
272.9981795
272.996009
272.9924848
272.9870883
272.9805381
272.9758046
272.9758392
272.9808998
272.3518822
273.9842543
273.0060337
273.0057822
273.0059571
273.0058449
273.0058531
273.005856
273.0051388
273.0038025
273.0022462
273.0011255
272.9997142
272.9974678
272.9934341
272.9873494
272.9801129
272.974952
272.9748674
272.9801598
272.3720506
273.9249348
273.0073126
273.0079169
273.0083099
273.0079106
273.007198
273.0067575
273.0059345
273.0049426
273.0038416
273.0030073
273.0015117
272.9987476
272.9938841
272.9869874
272.9791653
272.9738074
272.9738204
272.979491
272.4020245
273.8655676
273.0093635
273.0110907
273.0117807
273.0109962
273.0095549
273.0085566
273.0075698
273.0068038
273.0059729
273.0051313
273.0032579
272.9997394
272.9939595
272.9863935
272.978234
272.9729773
272.9732558
272.9792797
272.437132
273.7888411
273.011796
273.0147881
273.0157864
273.0146127
273.0123881
273.0106843
273.0094244
273.0087701
273.0080472
273.0070394
273.0046553
273.000429
272.9939561
272.9859906
272.9778689
272.9729741
272.9735708
272.9797577
272.4856088
273.7140341
273.0141612
273.018302
273.0195748
273.0179581
273.0148905
273.0125021
273.0109403
273.0102623
273.0095831
273.0083453
273.0055334
273.0008854
272.9940947
272.9861068
272.9784162
272.9740548
272.9748779
272.9809624
272.5356711
273.6189478
273.0158375
273.0208298
273.0222206
273.0201787
273.0164251
273.0133896
273.0115367
273.010869
273.0102493
273.0088728
273.0058701
273.0011863
272.9945094
272.9868862
272.9799112
272.9762203
272.9772087
272.9829054
272.6003565
273.5270114
273.0162327
273.0215474
273.0229338
273.0206419
273.016598
273.0131975
273.0111835
273.0104959
273.0099585
273.0085825
273.0056937
273.0013215
272.9951951
272.9883338
272.9823154
272.9793556
272.9804135
272.9854505
272.661907
273.414645
273.0150003
273.0200844
273.0213295
273.019057
273.0151885
273.0118436
273.009884
273.0092248
273.0087839
273.0075737
273.0050553
273.0012845
272.9960862
272.9903452
272.9854817
272.9832453
272.9842476
272.9884235
272.7378182
273.3073001
273.0121183
273.0163463
273.0173394
273.0154118
273.0122238
273.0093926
273.007754
273.0071963
273.0068378
273.0059158
273.0039752
273.0010681
272.9971248
272.9928146
272.9892327
272.9876814
272.9885066
272.9916408
272.8063126
273.1827151
273.0081203
273.0114265
273.012408
273.0114532
273.0094135
273.0074211
273.0060354
273.0052766
273.0047293
273.0039035
273.0025843
273.0005318
272.9978976
272.9949171
272.9927492
272.9917791
272.9926726
272.9947609
272.8884002
273.2108461
273.3524103
273.5888209
273.7272977
273.8413372
273.8756893
273.8499221
273.7770425
273.6381846
273.4972958
273.2861792
273.1321937
272.9010992
272.8066896
272.6098562
272.6446815
272.5335794
272.7271648
272.6985482
272.9581671
274.5930084
273.0180767
273.0188958
273.0209426
273.0219965
273.0235845
273.0259077
273.0266705
273.0254055
273.021308
273.0152368
273.0079739
272.9999963
272.9916554
272.9837643
272.9777285
272.9755713
272.9779903
272.9833707
272.0293425
274.5919821
273.0166662
273.0172193
273.0190126
273.0198458
273.0212604
273.0233802
273.023975
273.0226445
273.018621
273.0128131
273.0059014
272.9984258
272.9906461
272.983245
272.9775189
272.975451
272.9777805
272.9828163
272.0243454
274.5907519
273.0156727
273.0157205
273.0170639
273.0174894
273.0185509
273.020304
273.0205994
273.0191193
273.0152535
273.0099411
273.0037577
272.9972398
272.9905187
272.9840252
272.9788614
272.9769483
272.9790751
272.9837559
272.0156775
274.5864421
273.0143564
273.0138031
273.0145982
273.0144921
273.0150687
273.0162855
273.0161751
273.0144807
273.010895
273.0062897
273.0011636
272.9959793
272.990672
272.9853633
272.9809097
272.9791565
272.9809639
272.9851044
272.0062263
274.5773521
273.0129101
273.0117671
273.0120675
273.0114337
273.0114502
273.0120416
273.0114107
273.0095086
273.0062825
273.0025082
272.9986506
272.9949994
272.9912332
272.9872015
272.9834656
272.9818159
272.9832035
272.9866733
271.996478
274.560466
273.0115566
273.0099703
273.0099074
273.0089134
273.008382
273.0082849
273.0071369
273.0050408
273.002151
272.9992224
272.9966242
272.9944522
272.9921204
272.9892217
272.9860764
272.9844148
272.9853325
272.9881385
271.9918871
274.5339749
273.0105002
273.0087341
273.0085108
273.0073321
273.0064165
273.0057699
273.0041482
273.0018066
272.9991381
272.996891
272.9952837
272.9942716
272.9930387
272.9909663
272.9881962
272.9864068
272.9868902
272.9891871
271.9914818
274.496418
273.0099304
273.0083895
273.0083173
273.0071957
273.0060114
273.0048822
273.0028575
273.0002441
272.9976143
272.9957077
272.9946593
272.9942786
272.9936469
272.9920213
272.9894
272.9874235
272.9875963
272.9896521
272.0024553
274.4456308
273.0100435
273.0091637
273.0095056
273.0086358
273.0073268
273.0058234
273.0034453
273.0004468
272.9975596
272.995574
272.9945562
272.9942382
272.9936797
272.9921113
272.9894382
272.9872981
272.9873464
272.989477
272.0207919
274.383388
273.0108941
273.0110654
273.0120654
273.0116182
273.0102633
273.008441
273.0056523
273.0021393
272.998673
272.9961718
272.9946999
272.9939756
272.9930766
272.9912402
272.9883419
272.9860746
272.9861491
272.9887021
272.0563635
274.3039607
273.0123884
273.0139811
273.0157704
273.0157447
273.0143379
273.0122114
273.0088913
273.0047252
273.0004364
272.9970975
272.9948684
272.9934273
272.9919153
272.9896149
272.9864451
272.9841635
272.984511
272.9876477
272.0994983
274.214774
273.0143068
273.0174477
273.020078
273.0203477
273.0188426
273.0163411
273.0124014
273.0075091
273.0023676
272.9980906
272.9949565
272.9926858
272.9905073
272.9877339
272.9844216
272.9823049
272.9830258
272.9867664
272.1622169
274.1065425
273.0161883
273.0207936
273.0241223
273.0246495
273.023051
273.0200569
273.0154866
273.0099522
273.004061
272.9988749
272.9949427
272.9919335
272.9891903
272.9861449
272.9828961
272.9811017
272.9821766
272.9863579
272.2315261
273.9916437
273.0175836
273.0232687
273.0270349
273.0276611
273.0259106
273.0225481
273.0175912
273.0116434
273.0052257
272.9994072
272.9949208
272.9914145
272.9883581
272.9852905
272.9822728
272.9808794
272.9822854
272.9866294
272.3183611
273.8563168
273.0179825
273.0242608
273.0281494
273.028766
273.0269069
273.0233315
273.0182426
273.0122003
273.0057347
272.9997376
272.9950143
272.9913364
272.9882544
272.9853518
272.9827762
272.9817374
272.9833224
272.9875577
272.4091144
273.7204515
273.0171731
273.0233914
273.0270929
273.0276308
273.0258204
273.0223134
273.0174883
273.0118113
273.0056692
272.9999648
272.995366
272.9918476
272.9889759
272.9863987
272.9843016
272.9836282
272.9851705
272.9890613
272.5106573
273.5642899
273.0150007
273.0206027
273.0238111
273.0242358
273.0226234
273.0195204
273.015365
273.0105085
273.0051758
273.000153
272.9960222
272.9929361
272.9904774
272.9883443
272.9867266
272.9863337
272.9877212
272.991064
272.6155214
273.4143462
273.011632
273.0160857
273.018568
273.0188528
273.0175774
273.0151688
273.0120266
273.008348
273.0042237
273.0002691
272.9969926
272.9945515
272.9926596
272.9910747
272.9899465
272.989762
272.9908764
272.9934501
272.7232664
273.2457463
273.0076568
273.011509
273.013393
273.0144386
273.013414
273.0120298
273.0093552
273.0065759
273.0033328
273.0004561
272.9981813
272.9962801
272.9948907
272.9936055
272.9929692
272.9929162
272.9939705
272.9957998
272.8353335
273.3355133
273.4209001
273.8552022
273.9435909
274.2243067
274.1698467
274.2353432
274.0325074
273.8858396
273.6171192
273.3264446
273.0950334
272.748482
272.6632496
272.33592
272.488619
272.2504077
272.6517496
272.5048246
273.000546
275.0209258
273.018845
273.0161706
273.0173527
273.0164888
273.0154169
273.0150804
273.0147893
273.0146226
273.0128156
273.0089411
273.0027864
272.9952731
272.9873913
272.9805875
272.976474
272.9764412
272.9801679
272.9852264
271.6021801
275.0239649
273.0179344
273.0152505
273.0162894
273.0152536
273.0139877
273.0134207
273.0128606
273.0124407
273.0106197
273.006963
273.0011755
272.9942343
272.9869795
272.9806937
272.9768796
272.9769114
272.9804558
272.9848184
271.5934311
275.033517
273.0178163
273.0150646
273.0158997
273.0145709
273.0129538
273.0119791
273.0109469
273.0100859
273.008215
273.0049043
272.999886
272.993985
272.9878798
272.9825637
272.9793083
272.9794587
272.9826615
272.9863789
271.5717609
275.0388023
273.0175183
273.0147322
273.0153902
273.0137493
273.0117136
273.0102378
273.0086188
273.0072431
273.005289
273.0024104
272.9983624
272.9937933
272.9891554
272.9851423
272.9826541
272.9829817
272.9857421
272.9885932
271.5525109
275.0431068
273.0170993
273.0143302
273.0148828
273.0130289
273.0106451
273.0086859
273.0064243
273.0045673
273.0024299
272.9999434
272.9968823
272.9937242
272.9906082
272.9880319
272.9864569
272.9870025
272.9892884
272.9911673
271.5261929
275.0340671
273.0165898
273.0140058
273.0146477
273.0127971
273.0102041
273.0077952
273.0050922
273.0026634
273.0002136
272.9979301
272.9956193
272.9936899
272.9919828
272.990747
272.9900863
272.9908587
272.9926933
272.993637
271.5126862
275.0132926
273.0162002
273.0140362
273.01502
273.0134674
273.0109456
273.0083352
273.005122
273.0020602
272.9990845
272.996632
272.9946369
272.9935116
272.9928802
272.9927618
272.9928837
272.9938666
272.9953473
272.9955877
271.5048747
274.9764225
273.0161337
273.014739
273.0163158
273.0153608
273.0130853
273.0103633
273.0066938
273.0028406
272.9990639
272.9959797
272.9938093
272.9929992
272.992962
272.9936464
272.9943555
272.9955047
272.996793
272.9967256
271.5144136
274.9158394
273.0164954
273.0162518
273.0186671
273.0185087
273.0166511
273.0138684
273.0096939
273.0048518
272.9999444
272.9957982
272.9929674
272.9918962
272.9920177
272.9931042
272.9942005
272.9955003
272.996794
272.9968929
271.5432701
274.8420527
273.0173605
273.0185704
273.0220271
273.0227839
273.0213956
273.0185244
273.0137297
273.0077131
273.0012992
272.9957394
272.9918424
272.9900854
272.9899297
272.9910784
272.9922839
272.9936897
272.9952195
272.9959892
271.5890562
274.7332435
273.0184604
273.021402
273.0259634
273.0276515
273.0267057
273.0236685
273.0181325
273.010784
273.0027672
272.9955789
272.9903732
272.987637
272.9870511
272.9880311
272.9892732
272.9907653
272.9926518
272.9943935
271.6640345
274.6198628
273.0196179
273.0241678
273.0297478
273.0322301
273.0316974
273.028462
273.0221107
273.0134597
273.0039135
272.9951714
272.9886035
272.9849258
272.9838658
272.9846171
272.9858029
272.9873864
272.9896861
272.9925209
271.7494638
274.4632737
273.0202729
273.0262443
273.0326695
273.0357287
273.0355978
273.0321044
273.0250437
273.0153355
273.004537
272.9945558
272.9868849
272.9824746
272.98099
272.9814586
272.9825999
272.9842883
272.9869983
272.9907976
271.8683488
274.3152282
273.0201708
273.0269637
273.0337345
273.0372646
273.0374728
273.0339582
273.0265247
273.0161612
273.0045854
272.9938699
272.9856392
272.9808479
272.9790819
272.9793351
272.9804033
272.9821962
272.9851502
272.9896311
271.9867796
274.1193065
273.018967
273.0260747
273.0327519
273.036447
273.0369812
273.0336731
273.0263477
273.015955
273.0042727
272.9934362
272.9852333
272.9803824
272.9785144
272.9786258
272.9796161
272.9814623
272.984576
272.9893012
272.1381726
273.9464515
273.0168823
273.0235806
273.0297147
273.0332914
273.034067
273.0311851
273.0245162
273.0148648
273.0038612
272.9935643
272.9858783
272.9812739
272.9794615
272.9795033
272.9804419
272.9821983
272.9852207
272.9898117
272.2768013
273.7272261
273.013851
273.019674
273.0248463
273.0280259
273.0288953
273.0266443
273.0210871
273.0129043
273.0033792
272.9943269
272.9876137
272.9835503
272.9819296
272.9819295
272.9827619
272.98428
272.986938
272.9910094
272.4446732
273.5404835
273.0102489
273.0146878
273.0185899
273.0210936
273.0219067
273.0203588
273.0162436
273.0100768
273.002746
272.9956542
272.9903687
272.9871512
272.9858431
272.9858185
272.9864817
272.987693
272.98975
272.9929785
272.5910936
273.3108208
273.0068802
273.0107818
273.0142917
273.016663
273.0175819
273.0162106
273.0129462
273.0080266
273.0026018
272.9975373
272.9938785
272.9914506
272.9903608
272.9902029
272.9905985
272.991571
272.9930186
272.9953703
272.7651496
273.3426291
273.6366321
274.0125511
274.3280427
274.5024696
274.6156764
274.5167547
274.3609662
274.0459833
273.7346511
273.318936
272.9895037
272.5862031
272.376084
272.0763449
272.1173001
272.0085233
272.3665713
272.4043585
272.8680727
275.8105031
273.0230876
273.0157256
273.0183297
273.0183927
273.0166366
273.0146457
273.0132312
273.0123969
273.0101449
273.0050188
272.9964641
272.9858166
272.9753483
272.9676404
272.9645429
272.9671206
272.9739296
272.9813978
270.8498225
275.8247494
273.0226563
273.0154254
273.01803
273.0179591
273.0159764
273.0136888
273.012004
273.0109058
273.0086177
273.0037207
272.9956194
272.9856291
272.9758172
272.9686952
272.965966
272.9685557
272.9750731
272.981249
270.8226337
275.8557273
273.0234466
273.0163988
273.0190405
273.0187788
273.0164087
273.013728
273.0115223
273.0099424
273.0074975
273.0029293
272.995654
272.9868315
272.9783023
272.9722519
272.9701822
272.9728097
272.9788039
272.9839164
270.7688088
275.8870712
273.0243092
273.0175605
273.0203039
273.0199178
273.0171787
273.0142091
273.0113918
273.0090875
273.0062607
273.0019204
272.995647
272.9882641
272.9813514
272.9767317
272.9756386
272.9783886
272.9837269
272.9874869
270.7041934
275.920642
273.0251011
273.0187212
273.0217123
273.021383
273.0184475
273.0151378
273.011741
273.0087532
273.0053597
273.0011149
272.9956873
272.9897479
272.9845562
272.9815265
272.9814849
272.984468
272.9891313
272.9914958
270.6305746
275.9336021
273.0256198
273.0198585
273.0232936
273.0233053
273.0204299
273.0169115
273.0129555
273.0091434
273.0050007
273.0005382
272.9955785
272.9907825
272.9871455
272.9857117
272.9868017
272.9901199
272.9941909
272.9953101
270.5761387
275.9292491
273.0260505
273.0211385
273.0252112
273.025806
273.0233297
273.0197921
273.0152662
273.0104232
273.0052187
273.0001643
272.9952082
272.991071
272.9887216
272.9886341
272.9907794
272.9944414
272.998151
272.9984178
270.5353941
275.8906221
273.0263951
273.0226982
273.0275957
273.0290158
273.0271897
273.0237149
273.0186099
273.0126106
273.0060564
272.9999265
272.9945443
272.9904937
272.9889409
272.9898616
272.9928415
272.9969028
273.0004717
273.0003719
270.537224
275.8174981
273.0267671
273.0246395
273.0305256
273.0329099
273.0318496
273.0285071
273.0228282
273.015506
273.0071591
272.9994597
272.9930964
272.9887382
272.9874511
272.988975
272.9926133
272.9971067
273.0007909
273.0009728
270.5689464
275.7070088
273.0271527
273.0269139
273.033891
273.0373073
273.0370237
273.0338052
273.0275021
273.0187716
273.0085802
272.9988094
272.9910719
272.9860642
272.9845298
272.9862389
272.9901932
272.994996
272.999024
273.0000675
270.6548787
275.5519578
273.027276
273.0291365
273.0371951
273.0416562
273.0421392
273.0389864
273.0319951
273.0218224
273.0097509
272.9980613
272.9885789
272.9825864
272.9805058
272.9820826
272.9860976
272.9910615
272.9956059
272.9979802
270.7725694
275.3679463
273.0268617
273.0307134
273.0396966
273.0451133
273.0463526
273.0432776
273.0356211
273.0241647
273.0104542
272.9970128
272.986034
272.9788851
272.9760823
272.9773068
272.981193
272.9862223
272.9912851
272.995178
270.9458721
275.1373815
273.0254935
273.0310493
273.040686
273.0468636
273.0488998
273.0459476
273.0378714
273.0254025
273.0105067
272.9958349
272.9837665
272.9756187
272.9721164
272.972843
272.9764451
272.9813706
272.9868782
272.9922125
271.1385133
274.8965045
273.0233154
273.0298427
273.0397197
273.0463282
273.0490523
273.0463823
273.0382596
273.0253873
273.0099651
272.9947513
272.9820394
272.9732877
272.9692914
272.9695844
272.9727742
272.9774376
272.9832192
272.9896124
271.3751017
274.6114941
273.0202855
273.0272501
273.0368028
273.0435613
273.0467466
273.0445363
273.0368535
273.0243023
273.0091473
272.9941076
272.9814249
272.9725802
272.9682968
272.9682231
272.9709674
272.9753211
272.9809961
272.9880011
271.6119156
274.3426464
273.0167759
273.0234376
273.0321155
273.0386473
273.0420394
273.0403993
273.0335986
273.0221472
273.008146
272.9940968
272.9821485
272.9737251
272.9694557
272.9691106
272.9714238
272.9753415
272.9806471
272.9875531
271.8681738
274.0311184
273.0128256
273.0187175
273.0260014
273.0318284
273.0351242
273.034063
273.0285006
273.018853
273.0068682
272.9946757
272.9842098
272.9767577
272.9728829
272.9723944
272.9742453
272.9775217
272.9821415
272.9883614
272.1200343
273.7545643
273.0089214
273.013471
273.0189493
273.0235823
273.0263833
273.0258166
273.0217397
273.014479
273.0052907
272.9957919
272.9875886
272.9816986
272.97857
272.9780793
272.9794062
272.9818865
272.9854681
272.990471
272.3728068
273.4371479
273.006105
273.0116109
273.0162058
273.0218569
273.0233633
273.0233437
273.0184843
273.0122977
273.0046122
272.9976192
272.9919138
272.9876235
272.9854012
272.9853329
272.9859228
272.988185
272.9900166
272.9939048
272.6277086
273.5792537
273.7865644
274.5413637
274.7833374
275.2854798
275.2409606
275.3176542
274.8972492
274.5505113
273.9825387
273.4037095
272.8996122
272.2508146
272.0156327
271.4317509
271.6834326
271.3274178
272.1258665
271.9548952
272.926915
276.6628155
273.0312247
273.0180911
273.0232576
273.0259183
273.0252665
273.0227341
273.0197482
273.0167048
273.0114621
273.0022447
272.9889423
272.9729709
272.9579559
272.9482846
272.9456607
272.9512127
272.9622666
272.9742671
269.8732248
276.6928251
273.0310768
273.0180587
273.0232489
273.0258324
273.0249259
273.0221585
273.019081
273.0159482
273.0107021
273.001879
272.9890331
272.9739541
272.9597064
272.9506206
272.9481991
272.953626
272.9642419
272.9741799
269.8241498
276.7614778
273.0325404
273.0194888
273.0248123
273.027264
273.0260056
273.0229649
273.0196013
273.0160109