/*--------------------------------*- C++ -*----------------------------------*\
| =========                 |                                                 |
| \\      /  F ield         | OpenFOAM: The Open Source CFD Toolbox           |
|  \\    /   O peration     | Version:  5.x                                   |
|   \\  /    A nd           | Web:      www.OpenFOAM.org                      |
|    \\/     M anipulation  |                                                 |
\*---------------------------------------------------------------------------*/
FoamFile
{
    version     2.0;
    format      ascii;
    class       volScalarField;
    location    "3.2";
    object      T;
}
// * * * * * * * * * * * * * * * * * * * * * * * * * * * * * * * * * * * * * //

dimensions      [0 0 0 1 0 0 0];

internalField   nonuniform List<scalar> 
30538
(
274.9198096
272.9947753
272.9690224
272.9589636
272.9552141
272.9562457
272.9638375
272.9762164
272.9940834
273.0125598
273.029892
273.0431633
273.0529235
273.0603369
273.0654722
273.0652042
273.0581783
273.0453892
273.0237209
272.5589101
274.9182941
272.9929636
272.9676363
272.9581886
272.9547653
272.9559293
272.9633248
272.9752266
272.9924105
273.0101663
273.0267873
273.0395469
273.048912
273.0560605
273.0610651
273.0609087
273.0542051
273.0418619
273.0206396
272.5543671
274.9135173
272.9938791
272.9694474
272.9610966
272.9582985
272.9596915
272.9667167
272.9777158
272.9936337
273.0099601
273.0252657
273.0370053
273.0456608
273.0522904
273.0570726
273.0571449
273.0510652
273.0395864
273.0195225
272.5457057
274.9081152
272.9951883
272.9722212
272.9651956
272.9632284
272.9649206
272.9713955
272.981279
272.9953379
273.0097683
273.0232057
273.0335318
273.0412089
273.0471912
273.0516908
273.0521103
273.0469273
273.0366466
273.0181206
272.5372511
274.8877466
272.9967044
272.975866
272.9703147
272.9692484
272.9712553
272.9771095
272.9857109
272.9975417
273.0096985
273.0209098
273.0295109
273.0360384
273.0413318
273.0456072
273.0464427
273.0422838
273.0334151
273.0166409
272.5228713
274.8670177
272.9985706
272.9801558
272.9762191
272.9760677
272.9783419
272.9834993
272.9907077
273.0002195
273.0099217
273.0186541
273.0254155
273.0306902
273.0352843
273.0394086
273.0407167
273.0375678
273.0301727
273.0151788
272.5127563
274.8232396
273.0006755
272.9849452
272.9826033
272.9833194
272.9857762
272.9902517
272.9960362
273.0033326
273.0104831
273.0167188
273.02161
273.0256952
273.0296604
273.0336486
273.0354098
273.0332426
273.0271516
273.0139008
272.5019204
274.780699
273.003012
272.9898906
272.9890205
272.990446
272.9931022
272.9968989
273.0013895
273.0065535
273.0113483
273.0151977
273.0183485
273.0213557
273.0248523
273.028746
273.030915
273.0295085
273.0244794
273.0127786
272.4982182
274.7071389
273.0051589
272.994603
272.9949806
272.9970043
272.9998438
273.0031659
273.0064452
273.0098167
273.0124366
273.0141993
273.0157996
273.0179638
273.0211034
273.0250179
273.0274041
273.0265203
273.0222271
273.0118139
272.5014576
274.6388847
273.0070365
272.9987401
273.0001027
273.002573
273.0055858
273.0085279
273.0108993
273.0127358
273.0136084
273.013636
273.0140246
273.0156436
273.018617
273.0226231
273.0250606
273.0243874
273.0204806
273.0109976
272.5093524
274.5320447
273.0082557
273.0021585
273.0041169
273.006962
273.0100615
273.0128345
273.0145261
273.0152712
273.0147277
273.0134818
273.0130246
273.0143672
273.0173226
273.0214425
273.0237749
273.023028
273.0192104
273.0103641
272.5333087
274.4348323
273.0090567
273.0045841
273.0069484
273.0099696
273.01318
273.0158085
273.0170973
273.0170443
273.0155455
273.0134398
273.0125049
273.0137641
273.0168294
273.021035
273.023161
273.0220842
273.0181584
273.0097583
272.5539853
274.2927493
273.0091651
273.0061226
273.0087362
273.0118336
273.0150251
273.0175009
273.0184532
273.0178838
273.0158166
273.0132845
273.0121021
273.0133793
273.0165927
273.0208787
273.0227561
273.0212409
273.0171138
273.00914
272.5998365
274.1671007
273.0089302
273.0070186
273.0096134
273.0125918
273.0156038
273.0178361
273.0185369
273.0176746
273.0153901
273.0127126
273.0114627
273.0128117
273.0161726
273.0205106
273.0221546
273.0202124
273.015902
273.0083579
272.629174
273.9953032
273.0081582
273.0073017
273.0096208
273.0122706
273.0149329
273.0168864
273.0174458
273.0165494
273.0143024
273.0117182
273.0105458
273.0119825
273.0153802
273.0196287
273.0210383
273.0187761
273.0143871
273.0074475
272.6942491
273.8481801
273.0071329
273.0069272
273.0088337
273.0110216
273.0132403
273.0148757
273.0153831
273.0146232
273.0126315
273.0103794
273.0093594
273.0107388
273.0140172
273.0180105
273.0192271
273.0168335
273.0125846
273.0063705
272.7285103
273.6555202
273.0057186
273.0059761
273.0074179
273.0091051
273.0108414
273.0121626
273.0126316
273.0121276
273.0105422
273.0087298
273.0079014
273.0092123
273.0121487
273.0156785
273.0166775
273.0143862
273.0105328
273.0053462
272.8100322
273.4940337
273.0042625
273.0046658
273.0056571
273.006764
273.0080335
273.0089877
273.0094034
273.009081
273.0079775
273.0066684
273.0061326
273.0072259
273.0096076
273.0124186
273.0131696
273.0112743
273.0081461
273.0042139
272.8455345
273.2840228
273.0051123
273.0051813
273.0107182
273.0094983
273.0146688
273.0116722
273.0138657
273.0095926
273.0091912
273.0056647
273.0055945
273.0047782
273.0064795
273.0060665
273.0077722
273.0048362
273.005034
273.0020875
272.9342006
272.7913076
274.1301276
273.4172961
274.7159758
273.9499734
274.9618753
274.1576592
274.8230812
274.0008412
274.3752065
273.5586285
273.7782918
273.0281748
273.2591924
272.6279968
272.9781195
272.4788655
272.9800047
272.5925336
273.159346
275.2784068
272.9970445
272.9695066
272.9605419
272.9576016
272.9594842
272.9673201
272.9792377
272.9949295
273.0099811
273.0236396
273.0349432
273.0446014
273.0526661
273.0578647
273.0573061
273.0507258
273.0397076
273.0188416
272.3676021
275.2776341
272.9953572
272.9683797
272.9599874
272.957389
272.9593528
272.9669371
272.9783508
272.9933059
273.0076539
273.0206072
273.0312878
273.0404329
273.0481431
273.0532091
273.0528181
273.046582
273.0360228
273.0157351
272.3597987
275.2748946
272.9964934
272.970659
272.9632651
272.9612687
272.963376
272.9705323
272.9810326
272.9945872
273.0075786
273.019175
273.0286887
273.0369022
273.0439468
273.0487985
273.0487461
273.0432017
273.0335221
273.0143899
272.3468838
275.2703915
272.9980857
272.9739994
272.9678562
272.9666088
272.9689302
272.9755014
272.9848292
272.9964559
273.0075317
273.0172523
273.0252015
273.0321888
273.0383745
273.0430077
273.0434614
273.0388938
273.0303865
273.012752
272.3311454
275.2530037
273.0000532
272.9781673
272.9734351
272.9730248
272.9755867
272.981518
272.989461
272.9988836
273.007603
273.015105
273.021214
273.0268475
273.0321072
273.036589
273.0376464
273.034227
273.0270441
273.0110596
272.3115031
275.2300338
273.0023717
272.9829477
272.9796824
272.9800897
272.9828956
272.9881421
272.9946314
273.0016979
273.007893
273.0129612
273.0171336
273.021388
273.0258283
273.0301775
273.0318736
273.0295827
273.0237675
273.0094516
272.2945366
275.1856287
273.0047924
272.9880298
272.9862171
272.9873779
272.9904011
272.9950127
273.0000135
273.0047974
273.0084366
273.0110974
273.0133643
273.0163463
273.0200585
273.0242957
273.0265673
273.0253273
273.0206974
273.0080092
272.2812804
275.1335514
273.0071489
272.9930212
272.9926025
272.9943828
272.997608
273.0016156
273.0052489
273.0078863
273.0091959
273.0096038
273.0102059
273.0120477
273.0152118
273.0193474
273.0220595
273.0216375
273.0179652
273.0068132
272.2757235
275.0514565
273.0090242
272.997517
272.9983867
273.0007232
273.004096
273.0076272
273.0100223
273.0108633
273.0101391
273.0086619
273.0078733
273.0088558
273.0115943
273.0156695
273.0185682
273.0186592
273.0156762
273.0058748
272.2827266
274.9630392
273.0103043
273.0012283
273.0031493
273.0059909
273.0094839
273.0125894
273.0140231
273.0134318
273.0111444
273.008251
273.0065003
273.0069571
273.0094547
273.0134934
273.0163555
273.0166343
273.0140463
273.0053208
272.2966497
274.8384107
273.0107738
273.0039087
273.0065793
273.0098831
273.013491
273.0163072
273.0170716
273.0155571
273.0121639
273.0083613
273.0060751
273.0063549
273.0088011
273.0128163
273.0154405
273.0156165
273.01315
273.0051881
272.3326477
274.7113701
273.0106375
273.0055141
273.0087573
273.0124008
273.0161105
273.0187076
273.0190491
273.0169784
273.0129964
273.0087446
273.0063223
273.0066872
273.0092671
273.0132337
273.01549
273.0152857
273.0127514
273.005381
272.3672723
274.544297
273.0098199
273.0063567
273.009888
273.0137842
273.0174067
273.0198288
273.019886
273.0175573
273.0133922
273.0091463
273.0068213
273.0074242
273.0102148
273.014136
273.0159543
273.0152295
273.0125352
273.0057096
272.433065
274.3831103
273.0087195
273.0065459
273.0101196
273.0139559
273.0173879
273.0195965
273.0195502
273.0172391
273.0132175
273.0092207
273.0071829
273.0080924
273.0111056
273.0149283
273.0163287
273.0150301
273.0121735
273.0059546
272.4812544
274.1818993
273.0071957
273.0061436
273.00947
273.0130317
273.0161569
273.0181354
273.0181365
273.016111
273.0124834
273.0089502
273.0072868
273.0084934
273.0116128
273.0152203
273.0162056
273.0143519
273.0113943
273.0058948
272.5708092
273.9971331
273.0055609
273.0052213
273.0081164
273.0112572
273.0139681
273.0157309
273.0158423
273.0142267
273.0111962
273.0082765
273.0069931
273.0083554
273.0114366
273.0147044
273.0153165
273.0130721
273.0101502
273.0054642
272.6249926
273.77332
273.0038199
273.0040198
273.0063575
273.0089418
273.0111827
273.0127004
273.012923
273.0117802
273.0094293
273.0071677
273.0062748
273.0076961
273.0105176
273.0132926
273.0136091
273.0112542
273.0085072
273.0047735
272.7319327
273.5745826
273.0023392
273.0027275
273.0044485
273.0063404
273.0080686
273.0092418
273.0095418
273.0087731
273.0071304
273.0055036
273.0049951
273.0062846
273.0085915
273.0107535
273.0108494
273.0087963
273.0064658
273.0037505
272.7861593
273.3338084
273.0037422
273.0042141
273.0106603
273.0104058
273.0159792
273.0132144
273.014896
273.0100496
273.0088601
273.0048869
273.0046998
273.0036435
273.005278
273.0035814
273.0052675
273.0017733
273.0033242
273.0010743
272.9010509
272.8610384
274.2066869
273.609372
274.9035142
274.2463847
275.2036562
274.479039
275.0398204
274.2398038
274.503996
273.6536724
273.8051084
272.9763024
273.2075869
272.4648091
272.9036009
272.2795144
272.9529146
272.4363934
273.2063529
275.6857618
273.0016247
272.9725175
272.9651269
272.9631124
272.9661995
272.9743918
272.9852348
272.9969126
273.0063495
273.014557
273.0230241
273.0322338
273.0406834
273.0453224
273.0443538
273.038699
273.0307438
273.0122868
271.8939555
275.6865187
273.0000515
272.9717946
272.9649007
272.9632071
272.9662692
272.9741117
272.9844197
272.9953368
273.0041491
273.0116429
273.0193828
273.0278996
273.0358196
273.0403837
273.0397026
273.0344195
273.0269491
273.0089859
271.884233
275.685713
273.0015156
272.9747417
272.9688134
272.9676611
272.9706813
272.977961
272.9872906
272.9968297
273.0043462
273.010452
273.0168427
273.0241497
273.0311583
273.035588
273.035439
273.0309383
273.0243218
273.0075384
271.85972
275.6850181
273.0036695
272.9788184
272.9741381
272.9736834
272.9767472
272.9833044
272.9913544
272.9990162
273.0046438
273.0088229
273.0134714
273.0192391
273.0251724
273.0294813
273.0300579
273.0266502
273.021107
273.0057421
271.8397896
275.6674168
273.0062312
272.9836917
272.9803676
272.9806985
272.9839287
272.9898176
272.9962366
273.0018236
273.005077
273.0070419
273.0096445
273.0137941
273.0186412
273.0229559
273.0242995
273.0221619
273.0177212
273.0038541
271.8041244
275.6476727
273.0090575
272.9889709
272.9870087
272.9881357
272.991665
272.9968717
273.0016447
273.0048446
273.005615
273.0052088
273.0057888
273.0083279
273.0122657
273.0165347
273.0186972
273.0177226
273.0143731
273.0019819
271.7855377
275.5952102
273.0116506
272.9942385
272.9935964
272.9955207
272.99935
273.0040291
273.0071133
273.0079978
273.006256
273.0036255
273.002249
273.0034
273.0064675
273.0107381
273.0135213
273.0135829
273.0111293
273.0002847
271.763058
275.5422062
273.0139485
272.9990478
272.9997415
273.0023336
273.0064812
273.0105768
273.0122314
273.0108607
273.0068919
273.0022489
272.9993534
272.9992408
273.0016786
273.0057896
273.0090361
273.0098421
273.0081636
272.9987886
271.7632118
275.4393876
273.0153444
273.0031236
273.0050647
273.0083316
273.0126288
273.016256
273.0165732
273.0134271
273.0076026
273.0014291
272.9972972
272.9963551
272.9982374
273.0020998
273.0054766
273.0067547
273.0057118
272.997705
271.7777957
275.3446209
273.0160116
273.0060907
273.0090962
273.0129818
273.0173467
273.0205146
273.0198557
273.0154057
273.0083669
273.00121
272.996395
272.9949595
272.9964711
273.0000736
273.0033202
273.004802
273.0041936
272.9973189
271.8099178
275.1828921
273.0153888
273.0077305
273.0116741
273.0160369
273.0204564
273.0232132
273.0219461
273.0167758
273.0091566
273.0016453
272.9966047
272.9951119
272.9964916
272.9998373
273.0027709
273.0042035
273.0038264
272.9978078
271.8742748
275.0446609
273.0142382
273.0084032
273.0129722
273.0177337
273.022109
273.0245189
273.0228925
273.0175394
273.0098547
273.0024545
272.997673
272.9964514
272.9980045
273.0010942
273.0036021
273.0047183
273.0044222
272.9989617
271.9384536
274.8265887
273.0122563
273.0083998
273.0132806
273.0181776
273.0223216
273.0244919
273.0228117
273.0176579
273.0102884
273.003433
272.9991947
272.9985199
273.0003505
273.0031527
273.0051296
273.0057712
273.0054471
273.0005299
272.0521554
274.6508365
273.0102789
273.0077637
273.0126083
273.0173665
273.0212162
273.0232027
273.0217338
273.0170424
273.0103211
273.0041891
273.0007408
273.0007164
273.0028331
273.0052766
273.0066738
273.0067395
273.0063432
273.0020363
272.1375465
274.388697
273.0077105
273.0065698
273.0110799
273.0154736
273.0189819
273.0208382
273.0197415
273.0158069
273.0099617
273.0047519
273.0021104
273.0027263
273.0049929
273.0070233
273.0077806
273.0072404
273.0067047
273.0031878
272.2878172
274.1876324
273.0054101
273.0049947
273.0089605
273.0128525
273.0159547
273.0177328
273.0170539
273.0139139
273.0091303
273.0049228
273.0030802
273.0041927
273.0065036
273.0080506
273.0081779
273.0070747
273.0064142
273.0037328
272.3813455
273.899107
273.0030586
273.0033732
273.0066672
273.0099126
273.0125532
273.0141929
273.0138767
273.0115704
273.0078639
273.0047149
273.0035887
273.0049813
273.0071298
273.0081848
273.0078011
273.0063138
273.0055507
273.0037946
272.5533807
273.6850336
273.0014339
273.0018829
273.0044037
273.0068583
273.0089496
273.0102957
273.01028
273.0086381
273.0060351
273.0038256
273.0033414
273.0047303
273.0065326
273.0071382
273.0065409
273.0049978
273.0042458
273.0032162
272.6460116
273.3799455
273.0043622
273.0035971
273.0136391
273.0111705
273.0199225
273.0143208
273.0172271
273.0099247
273.0083563
273.00358
273.0032531
273.0021942
273.0026881
273.0004382
273.0005597
272.9986187
273.0006016
273.0006779
272.8277744
272.69067
274.5694399
273.5651525
275.3853015
274.3059397
275.681592
274.5599819
275.3654624
274.2577184
274.6022558
273.5663573
273.6675033
272.7847089
272.8769444
272.2160162
272.4782016
272.0818628
272.5931325
272.3988441
272.9921646
276.8499945
273.0158718
272.9780401
272.9720572
272.9710547
272.9750333
272.9828415
272.9914406
272.9975606
273.0010947
273.0049471
273.0108807
273.0189431
273.02643
273.0292707
273.0281544
273.0242888
273.0192748
273.0015969
271.1172287
276.857433
273.0145448
272.9776336
272.9721748
272.9713654
272.975172
272.982543
272.9905736
272.9962863
272.9993179
273.0024834
273.0075973
273.0147548
273.0215621
273.0244208
273.0236773
273.0202384
273.0157597
272.9983067
271.0945197
276.8735873
273.0164902
272.981124
272.9766546
272.9762123
272.9797671
272.9864795
272.9934932
272.9982545
273.0001587
273.0019872
273.0056128
273.0113002
273.0170228
273.0198939
273.0198339
273.0171719
273.0135777
272.9972654
271.0516718
276.8872272
273.0191055
272.9858242
272.9826247
272.9827449
272.9861305
272.9920797
272.9977414
273.0009507
273.001225
273.0011757
273.0028666
273.0068107
273.0113459
273.0142792
273.015083
273.0133918
273.0107901
272.9959333
270.9994069
276.8918526
273.0220254
272.9911996
272.9894072
272.9902752
272.9936914
272.9988906
273.002938
273.004277
273.0024632
273.0002452
272.9997066
273.0018599
273.0052324
273.0083536
273.0099964
273.0093518
273.0076956
272.9944008
270.9388632
276.8762985
273.0248409
272.9966809
272.9963496
272.9981263
273.0017745
273.0062332
273.0086087
273.0076741
273.0036977
272.9991952
272.9965228
272.9969247
272.9993086
273.0025316
273.0049035
273.0052492
273.0044298
272.9927711
270.8885373
276.8301357
273.0271328
273.0017875
273.0029271
273.0056871
273.0097206
273.0135247
273.0141813
273.0110618
273.0047845
272.9982995
272.993618
272.9924662
272.9939455
272.9971597
273.0000095
273.0012208
273.0010609
272.9910729
270.8530844
276.7519206
273.028648
273.0061482
273.0087621
273.0124424
273.0168877
273.020005
273.0190705
273.0137631
273.0055267
272.9972459
272.9911533
272.98871
272.9894137
272.9924124
272.9955485
272.9973814
272.9978238
272.9895141
270.8436
276.6253791
273.0289994
273.0095161
273.0134252
273.0180008
273.0227067
273.0252393
273.0228566
273.0158669
273.0060231
272.9965171
272.9893914
272.986124
272.9861166
272.9887472
272.9918976
272.99417
272.9951886
272.988309
270.8735323
276.4667442
273.0282172
273.0115079
273.0165601
273.0217944
273.0266484
273.0286376
273.0252254
273.0171006
273.0063503
272.9961376
272.9885894
272.9849034
272.9843823
272.9866318
272.9896946
272.9922513
272.9937119
272.9881008
270.9316438
276.2464596
273.0260836
273.0123446
273.0181593
273.0238551
273.0287018
273.0302407
273.026229
273.0176231
273.0065755
272.996331
272.988855
272.9851732
272.9844713
272.9863968
272.9893124
272.9919836
272.9936864
272.9888287
271.0460635
276.0083309
273.0233738
273.0123294
273.0185288
273.0243931
273.0290544
273.0302751
273.0260137
273.0174198
273.0066533
272.9968826
272.9899646
272.9866664
272.9861418
272.987781
272.9904983
272.9931112
272.9949426
272.9906738
271.1694626
275.7042508
273.019998
273.0116835
273.0178595
273.0235355
273.0278805
273.0289392
273.0248056
273.0166457
273.0065026
272.9975816
272.9915211
272.9889546
272.9888344
272.9901309
272.992509
272.9949604
272.996849
272.9930152
271.3628183
275.4057086
273.0165044
273.0104237
273.0162297
273.0214243
273.0253799
273.0264639
273.0227762
273.0153771
273.0061066
272.998194
272.9932488
272.9916385
272.9919701
272.9928123
272.9946583
272.9968647
272.9987203
272.9954724
271.5284607
275.0406293
273.0125182
273.0086469
273.0137753
273.0183104
273.0218533
273.0230998
273.0201044
273.0137496
273.0055768
272.9988488
272.9951274
272.9945711
272.9952037
272.9954833
272.9966027
272.998431
273.000108
272.9974102
271.7775478
274.7094938
273.0088578
273.0065437
273.0108438
273.0147197
273.0178106
273.0192137
273.0169886
273.0117754
273.0049205
272.9995121
272.9970748
272.9974164
272.9981602
272.9977624
272.9980552
272.999405
273.0008437
272.9989668
271.9553903
274.3118473
273.0053499
273.0044586
273.0079268
273.0111029
273.0137258
273.0151474
273.0136243
273.0096158
273.0042064
273.0002318
272.9989079
272.9997805
273.0004473
272.9994371
272.9990474
272.9998681
273.0010441
272.9999719
272.2356643
273.9708302
273.0027445
273.0025562
273.0051774
273.0075941
273.0097004
273.0109367
273.0100227
273.0070977
273.0032222
273.0005509
273.0000708
273.0011249
273.0017174
273.0004378
272.9996682
272.9999742
273.0008411
273.0005026
272.4059066
273.5568748
273.0063174
273.0066267
273.0191496
273.0180183
273.0273698
273.0217274
273.0220655
273.0124029
273.008123
273.0020024
273.0013037
272.9989936
272.9984128
272.993772
272.9944144
272.9933318
272.9977918
272.9985482
272.6993595
272.9189388
274.8624279
274.2064272
276.0523012
275.3099274
276.5200431
275.65422
276.0969409
275.056229
275.0133214
273.855712
273.7007672
272.5486781
272.6171645
271.5789093
272.1325104
271.3284128
272.4336109
271.8367476
273.132231
277.9115046
273.0331116
272.9855024
272.9817695
272.9816711
272.9854625
272.9906943
272.9940781
272.99491
272.9944293
272.9957181
272.9998527
273.0059167
273.011075
273.0123202
273.0118536
273.011029
273.0083038
272.9878802
269.8867869
277.9288113
273.0319243
272.9851852
272.9818702
272.9818278
272.9853962
272.990313
272.9936055
272.9943291
272.9933628
272.993937
272.9971752
273.0023783
273.0068062
273.0079592
273.0077176
273.0073083
273.0051958
272.9849065
269.8529139
277.9631507
273.0342258
272.9888632
272.9863628
272.9864789
272.9897002
272.994182
272.9971482
272.9973637
272.9953845
272.994544
272.9963013
273.0000645
273.0034225
273.0044687
273.0045597
273.0048345
273.0037425
272.9851943
269.7653264
278.0010677
273.0372282
272.9938005
272.9924224
272.9928648
272.9958153
272.9998025
273.0019914
273.0011573
272.9978078
272.9951776
272.9948708
272.9967956
272.9990312
273.0000242
273.0007329
273.00169
273.0017565
272.9853719
269.6856495
278.0246992
273.0404093
272.9993722
272.9993371
273.0003455
273.0031606
273.0066007
273.0076351
273.0054146
273.0002601
272.9955186
272.9930699
272.9930918
272.9942161
272.99527
272.9964819
272.9981292
272.9993182
272.9853552
269.563016
278.0304102
273.0432759
273.0048934
273.006386
273.0082365
273.0111096
273.0138162
273.0135595
273.0095002
273.0026301
272.9959667
272.9912165
272.989277
272.9892479
272.9902369
272.9919834
272.9942701
272.9964591
272.9849453
269.490494
277.9802557
273.0450004
273.009772
273.0129165
273.015864
273.018944
273.020832
273.0190053
273.0131236
273.0045155
272.9960205
272.9895399
272.9857612
272.9844972
272.985378
272.9874594
272.9903679
272.9933269
272.9843772
269.4164428
277.9062269
273.0457205
273.0136403
273.0184266
273.0225408
273.0259093
273.0267967
273.0234395
273.0157942
273.0057321
272.9960755
272.988084
272.982741
272.9804271
272.9809636
272.9832463
272.9866338
272.9903641
272.9836385
269.4117345
277.7360041
273.0444945
273.0162354
273.0224742
273.0276944
273.0312417
273.0312432
273.0264762
273.0174733
273.0062668
272.9957365
272.986785
272.9805237
272.9773596
272.9775353
272.9799073
272.9836861
272.988011
272.9831582
269.4583281
277.5572333
273.0424674
273.0174655
273.0248259
273.0307521
273.0344712
273.0337426
273.0279594
273.018114
273.0062449
272.9952184
272.9859578
272.9792419
272.9756711
272.975543
272.9780353
272.9821237
272.9867189
272.9831944
269.5594594
277.2454885
273.038429
273.0176356
273.0255076
273.0318038
273.0355831
273.034346
273.0280594
273.0178015
273.0056219
272.9946471
272.9855275
272.979026
272.9753915
272.9751311
272.977828
272.9821204
272.9866455
272.9837072
269.7567159
276.9656217
273.0346338
273.0170067
273.0248257
273.0311418
273.0348155
273.0333592
273.0268166
273.0165393
273.0045575
272.9940174
272.9855672
272.9796686
272.9763259
272.9760689
272.9789137
272.9833586
272.9876222
272.9849377
269.9600592
276.5254166
273.0292571
273.0156632
273.0229819
273.0289256
273.0324336
273.0310414
273.0244621
273.014428
273.0029822
272.993252
272.985824
272.9808673
272.9780893
272.9778577
272.9807122
272.9852937
272.9892674
272.9864811
270.2953231
276.1720816
273.0246959
273.013712
273.0201542
273.0253851
273.0287399
273.0276641
273.0214005
273.0117652
273.0010907
272.9924509
272.9864579
272.9827365
272.9806653
272.9802447
272.9828733
272.9875155
272.9911758
272.9883799
270.5632895
275.6420857
273.0187183
273.0113026
273.0166357
273.0210194
273.0242051
273.0236561
273.0180074
273.0091767
272.9994367
272.9921584
272.9878329
272.9855778
272.9840992
272.9832132
272.9852146
272.9896869
272.9930258
272.9902445
270.9916327
275.2515082
273.0139959
273.0086577
273.0128547
273.0164672
273.0194104
273.0193434
273.0146157
273.0068679
272.9984621
272.9927017
272.9901363
272.9892384
272.9881047
272.9864158
272.9875537
272.9916692
272.9946167
272.9922746
271.2774266
274.6818931
273.0087823
273.00611
273.0093147
273.0122257
273.0147907
273.0150551
273.0113477
273.0050837
272.9982995
272.9942314
272.9930207
272.9930149
272.9920065
272.9897053
272.9900161
272.9935277
272.9959837
272.9941615
271.7488853
274.2817481
273.0052009
273.0037506
273.0061981
273.0083498
273.0105557
273.0108266
273.0082016
273.0035038
272.9986474
272.9959899
272.9957477
272.9961477
272.9953901
272.9929224
272.9926142
272.9952261
272.997046
272.9960495
272.0221556
273.6982219
273.0125696
273.0079318
273.0315139
273.021355
273.0410441
273.0245297
273.0277302
273.0106689
273.0062118
272.999018
272.9981065
272.9946781
272.991615
272.9872852
272.9870538
272.9892902
272.9937549
272.9955259
272.5055859
272.6003858
275.7255192
274.2188176
277.2668203
275.6019743
277.7449003
275.9993936
276.9155222
275.2049101
275.2623972
273.7072342
273.3730153
272.0899871
271.7847962
270.9178065
271.0247523
270.7725742
271.5107545
271.6994175
272.6010568
280.1693315
273.0732823
272.9945495
272.9932068
272.9934271
272.9951244
272.99566
272.9936007
272.9906625
272.9885687
272.9896255
272.9930551
272.9959147
272.9970861
272.9973068
272.9985516
273.001527
273.0011968
272.9776358
268.0087457
280.2128928
273.0723991
272.9940762
272.992959
272.9932092
272.9948987
272.9957797
272.9942669
272.9911306
272.9883892
272.9886069
272.990997
272.9933078
272.9940776
272.9938931
272.9947544
272.9977681
272.9980743
272.9744387
267.9219358
280.3139278
273.0756348
272.9974738
272.9969132
272.997278
272.99902
273.0003788
272.9991746
272.9955764
272.9917641
272.9905136
272.9911649
272.9922513
272.9923219
272.9916194
272.9920551
272.9952315
272.9967919
272.9761362
267.7488635
280.4122541
273.0794039
273.0020801
273.0023744
273.0030659
273.004888
273.0063747
273.0050069
273.0008294
272.9959941
272.9928166
272.9912012
272.9903667
272.9894104
272.988317
272.9883998
272.9918569
272.9951109
272.9784129
267.5365385
280.5291388
273.083771
273.0073156
273.0087487
273.0100229
273.0119209
273.0132012
273.0113031
273.0063357
272.9999241
272.9948889
272.990801
272.9877551
272.9854394
272.9840416
272.984086
272.9879469
272.9929996
272.9810702
267.290735
280.5792786
273.0869263
273.0124742
273.0153713
273.0174338
273.0193676
273.0201108
273.0173639
273.0111959
273.0035937
272.9963918
272.9902143
272.9848867
272.9811427
272.9793516
272.9794395
272.9837348
272.990498
272.9836183
267.0898262
280.5844912
273.0887003
273.0169506
273.021546
273.0245712
273.0265051
273.0264061
273.0226436
273.0157292
273.0065145
272.9329183
272.98948
272.9820158
272.9769045
272.9746762
272.9748164
272.9796071
272.9878793
272.9858398
266.9371294
280.4850559
273.087854
273.0203614
273.0266251
273.0307455
273.0325017
273.0313341
273.0264431
273.0184792
273.0090543
272.999189
272.9891008
272.9793763
272.9731362
272.9705649
272.970884
272.9761943
272.985738
272.9877442
266.8870853
280.2844545
273.0846422
273.0223734
273.0301281
273.0351834
273.0367609
273.0344954
273.0286205
273.0200075
273.0099756
272.9997328
272.9881649
272.9773855
272.9704063
272.9677134
272.9683203
272.9741415
272.9843913
272.9888783
266.9542323
279.9819211
273.0793296
273.0231606
273.0318352
273.0375165
273.0389405
273.0358579
273.0292291
273.0200017
273.009599
272.9988412
272.9872524
272.9761808
272.968967
272.9662971
272.9673219
272.9735778
272.9838003
272.9894364
267.1301265
279.5434992
273.0716701
273.0228866
273.0318572
273.0377546
273.0390524
273.0354546
273.0284109
273.0187814
273.0081161
272.9972864
272.9860563
272.9757285
272.9686574
272.9661065
272.9676289
272.9741883
272.983717
272.9886287
267.4632149
279.0473078
273.0632311
273.0217153
273.0304076
273.0361242
273.0373114
273.0334763
273.0262562
273.0163464
273.0054818
272.9951546
272.9849491
272.9756973
272.9689738
272.9666694
272.9687818
272.9755706
272.9840093
272.9877572
267.8572903
278.4041071
273.0529418
273.0196767
273.0275975
273.0328594
273.0340625
273.0301486
273.0226856
273.0127015
273.0019473
272.9925471
272.9836664
272.9758464
272.9697384
272.9678104
272.970566
272.977508
272.9847273
272.9861215
268.4269135
277.7785576
273.0432405
273.0168677
273.0236144
273.028321
273.0297342
273.0260661
273.0182765
273.0081279
272.9977784
272.9896724
272.9826132
272.9764268
272.9714504
272.9699306
272.9729601
272.9799945
272.9860266
272.9858805
268.9525506
277.0084283
273.0323903
273.0135584
273.0190153
273.0231051
273.024902
273.0217701
273.013825
273.0037516
272.9941538
272.9876625
272.9828503
272.9784348
272.9746344
272.9731657
272.9759156
272.9829238
272.987981
272.9860108
269.6653063
276.339753
273.0234742
273.0101565
273.0144089
273.0179308
273.020005
273.0175487
273.0100013
273.0005212
272.9921697
272.9874653
272.9848599
272.9821777
272.9792129
272.9772951
272.9794015
272.9860764
272.9903182
272.9879305
270.193713
275.5272587
273.0145739
273.0070739
273.0103392
273.0132559
273.0153998
273.0135536
273.0070276
272.998898
272.9923015
272.9893984
272.9884474
272.9870313
272.9845646
272.9821351
272.9835341
272.9894133
272.992787
272.9900254
270.9563206
274.8663088
273.0083854
273.0043841
273.0071999
273.0094309
273.0114318
273.009915
273.0048684
272.9986451
272.9939647
272.9923476
272.9923899
272.9918177
272.9899711
272.9873632
272.9881016
272.9926972
272.9949935
272.9930694
271.4285928
274.0524631
273.0188933
273.0156636
273.0508108
273.0421697
273.0674739
273.0476132
273.042569
273.01836
273.0079535
272.9981542
272.9958149
272.9895492
272.9854151
272.9815298
272.9822838
272.9878903
272.9916216
272.9943089
272.1983982
272.989375
276.3921188
275.4448827
278.7320416
277.6293368
279.5765483
278.2715213
278.4349814
276.7737645
276.0224857
274.1920604
273.3012698
271.4752253
271.0414538
269.4305465
270.0624165
269.0449127
271.0138191
270.4626528
272.8140626
282.4124486
273.1237287
273.0039572
273.0047601
273.0039304
273.0030659
272.9990724
272.9929047
272.9869591
272.9839612
272.9851528
272.9870363
272.9856316
272.9829458
272.9824317
272.9847181
272.9919541
272.9972599
272.9792288
265.5287184
282.5141365
273.1237781
273.0031819
273.0042054
273.0037207
273.0031994
272.9999574
272.9941017
272.9879638
272.9843255
272.984441
272.9849362
272.9836126
272.9809351
272.9797939
272.9816215
272.9881029
272.9936033
272.9750306
265.3767299
282.7110807
273.1291232
273.0059982
273.0075751
273.0077027
273.0076958
273.0052885
272.9998339