/*--------------------------------*- C++ -*----------------------------------*\
| =========                 |                                                 |
| \\      /  F ield         | OpenFOAM: The Open Source CFD Toolbox           |
|  \\    /   O peration     | Version:  5.x                                   |
|   \\  /    A nd           | Web:      www.OpenFOAM.org                      |
|    \\/     M anipulation  |                                                 |
\*---------------------------------------------------------------------------*/
FoamFile
{
    version     2.0;
    format      ascii;
    class       volScalarField;
    location    "8";
    object      p;
}
// * * * * * * * * * * * * * * * * * * * * * * * * * * * * * * * * * * * * * //

dimensions      [1 -1 -2 0 0 0 0];

internalField   nonuniform List<scalar> 
30538
(
101298.3706
101296.1586
101306.7815
101310.3563
101311.9309
101310.8158
101316.4037
101318.4261
101324.3765
101330.6205
101334.6277
101331.5197
101327.3168
101327.138
101330.4014
101330.0411
101324.5888
101316.6222
101309.3887
101303.0731
101300.5621
101299.512
101305.0137
101307.4411
101312.1077
101314.2471
101320.5356
101321.1656
101324.8725
101328.6506
101331.8719
101330.8682
101329.3436
101329.5247
101330.7391
101328.2579
101322.7241
101316.6467
101311.8792
101305.048
101303.0736
101303.8861
101303.6397
101304.7043
101312.5127
101316.4663
101322.7835
101323.3453
101326.3297
101327.5682
101328.8778
101329.4233
101330.625
101331.4326
101330.9558
101327.2425
101321.8072
101316.6738
101313.3508
101306.2603
101303.8413
101305.9134
101303.4393
101304.3602
101313.4758
101317.3992
101322.6832
101324.2951
101328.1127
101327.6159
101326.5406
101326.891
101329.4482
101330.8374
101330.2922
101327.1095
101322.4285
101316.9764
101312.5012
101305.3034
101302.2311
101304.2086
101304.4866
101306.242
101314.8848
101317.5752
101321.4361
101324.5824
101329.8844
101328.4772
101325.0506
101323.6591
101325.3057
101326.8352
101327.683
101327.2433
101324.0881
101317.4524
101309.6153
101302.2489
101299.734
101300.4244
101306.5198
101309.7757
101316.5761
101317.7754
101320.474
101324.2324
101329.998
101328.7616
101324.6209
101320.9015
101320.0618
101320.8547
101323.1769
101325.8636
101325.0607
101318.4431
101308.0819
101300.2286
101298.6978
101298.4201
101308.8508
101313.1967
101318.1947
101318.67
101320.7457
101323.0862
101327.4786
101327.0596
101324.3317
101319.3322
101315.9727
101315.2591
101317.9956
101322.2566
101324.2746
101319.6045
101309.5315
101301.2266
101299.369
101299.4738
101310.6088
101315.0262
101318.6061
101319.247
101321.4842
101321.44
101322.8502
101323.4977
101323.0416
101318.2532
101313.66
101311.5976
101313.6251
101317.8136
101322.1327
101320.4954
101313.0466
101304.2138
101300.6863
101302.0066
101310.3636
101313.9822
101317.0437
101318.3373
101321.3778
101319.8598
101318.7087
101319.1771
101320.3095
101316.7465
101312.2693
101309.3902
101311.3353
101315.3285
101319.9637
101319.965
101314.6103
101306.2216
101301.4133
101303.5915
101308.0165
101311.3327
101314.3586
101315.9938
101319.8207
101318.238
101316.1431
101315.0774
101316.0978
101314.0032
101310.6608
101307.92
101310.9493
101315.2349
101318.5219
101317.515
101312.6262
101305.5616
101301.5114
101303.2938
101305.6591
101309.4219
101313.1542
101314.0342
101316.8359
101315.9424
101314.7217
101311.4664
101311.58
101310.8822
101308.7797
101306.6935
101311.4789
101316.8298
101317.6613
101313.7933
101308.0036
101302.8497
101301.1164
101302.0479
101305.293
101309.5879
101313.7559
101313.3336
101312.8741
101312.52
101312.4175
101308.401
101307.8663
101308.3959
101307.5822
101306.7706
101311.4125
101316.181
101315.8011
101310.6843
101305.3481
101301.3699
101301.3963
101301.7912
101306.429
101310.1389
101314.4078
101313.1287
101308.9031
101308.0354
101308.9744
101306.1065
101306.0892
101306.7818
101308.0616
101307.69
101309.7636
101311.8179
101311.8145
101309.5844
101306.5855
101302.6532
101301.9277
101302.6817
101307.3729
101309.006
101312.154
101311.9815
101306.1904
101304.0894
101305.0566
101304.9443
101305.5654
101305.5225
101308.2124
101308.2573
101307.0125
101305.7799
101306.5302
101309.3335
101310.3547
101305.3311
101302.2276
101303.8344
101306.838
101305.7143
101306.9801
101309.2179
101305.5238
101301.6712
101302.0717
101304.6398
101306.0858
101303.9394
101306.5459
101307.1026
101304.9393
101301.4145
101302.904
101308.4749
101311.7842
101306.6187
101301.7883
101303.6428
101305.2425
101302.555
101301.3748
101305.5097
101305.5105
101300.7379
101300.0047
101304.3662
101306.5983
101302.6376
101302.4708
101303.6857
101304.1636
101301.7738
101302.1204
101305.6045
101307.6715
101304.2467
101300.42
101301.99
101303.4309
101301.2593
101299.1415
101302.5525
101304.0736
101300.2405
101299.0601
101303.3973
101306.8359
101302.309
101298.2393
101299.588
101304.5384
101305.6435
101303.7802
101301.2412
101299.4494
101299.2834
101298.6671
101299.5779
101302.2151
101301.789
101299.9905
101300.8898
101301.1142
101299.5375
101298.2825
101301.7319
101306.6989
101302.8211
101295.897
101296.8269
101304.6167
101309.043
101305.5939
101297.5141
101291.7574
101294.9537
101297.8281
101297.8733
101300.9942
101302.99
101302.2224
101299.9539
101298.7728
101299.068
101298.3829
101300.7011
101305.0664
101303.5214
101297.4312
101296.4042
101303.3639
101308.9209
101305.0282
101296.4217
101291.142
101294.2774
101298.6904
101298.7447
101299.2864
101301.5897
101302.2535
101298.5079
101298.2245
101299.7239
101299.2857
101300.8428
101302.053
101300.8759
101299.7245
101297.2391
101300.9046
101304.8114
101302.3812
101297.7724
101295.2125
101297.3679
101297.9107
101299.2289
101308.6573
101309.6069
101311.6787
101313.0818
101321.0111
101322.146
101323.0311
101324.0244
101328.331
101330.6441
101328.6782
101324.5072
101323.7622
101325.4161
101323.8726
101317.2665
101309.2802
101302.5792
101299.7763
101300.2873
101306.6983
101307.9972
101311.7781
101313.7928
101322.2546
101323.8134
101324.8543
101325.357
101328.2828
101329.6109
101328.6472
101326.1109
101325.0115
101324.5595
101321.8943
101316.1418
101309.845
101303.5155
101302.146
101302.1882
101305.1799
101307.2102
101313.4391
101315.8425
101322.5504
101324.4383
101327.1653
101327.4376
101327.7705
101327.2885
101327.7503
101327.6111
101326.4335
101323.7348
101319.9584
101315.1034
101310.3402
101304.3341
101303.3092
101303.2357
101304.8999
101307.6199
101316.1657
101318.8933
101322.1163
101323.8627
101328.6404
101328.9775
101326.7329
101323.8363
101325.1317
101327.2824
101326.7711
101322.8599
101318.8822
101314.9484
101310.776
101304.5575
101302.6194
101303.0876
101305.3972
101308.2655
101317.6118
101320.7267
101321.6396
101323.0424
101328.7314
101329.1951
101325.6792
101320.7851
101321.7304
101324.7325
101325.0168
101321.6243
101318.7895
101315.6735
101311.0731
101304.1308
101300.5344
101301.3805
101306.2333
101309.027
101317.431
101320.9645
101321.8723
101322.4465
101326.9203
101327.5713
101324.7969
101319.282
101318.575
101320.5564
101321.5429
101319.9362
101318.9881
101316.6526
101311.3931
101303.7552
101298.9867
101299.9544
101307.2577
101310.233
101317.165
101320.689
101322.9979
101322.0139
101323.3862
101324.0614
101323.6145
101318.9751
101316.2001
101316.1523
101317.5469
101317.7878
101318.7491
101317.0469
101311.4612
101303.6788
101299.0003
101300.4963
101308.4036
101311.7895
101317.2442
101319.9408
101323.507
101321.2324
101319.4127
101319.8174
101321.148
101317.929
101314.4413
101312.8624
101314.1982
101315.6273
101317.7508
101316.4486
101311.1172
101303.6213
101300.8037
101303.7065
101309.4593
101312.8529
101317.2569
101318.369
101321.6345
101319.4393
101317.3945
101316.4941
101317.3836
101315.1296
101312.735
101310.8574
101311.9621
101313.9341
101316.4113
101314.9359
101309.6628
101303.0094
101303.0244
101307.3517
101309.7156
101312.572
101316.6078
101316.0698
101317.1621
101316.903
101317.3912
101314.6582
101312.7183
101311.0309
101310.8852
101309.6637
101310.3745
101312.4476
101314.8071
101313.1451
101307.9047
101302.2221
101303.9993
101308.2805
101308.8912
101311.2311
101315.9216
101314.4584
101312.2628
101313.4447
101317.4827
101313.124
101308.5355
101307.1005
101309.1723
101308.6541
101308.8247
101311.0223
101313.305
101311.7626
101306.6092
101301.5405
101302.9875
101306.1347
101307.649
101309.8491
101315.0152
101313.7701
101308.9405
101309.8525
101314.7091
101310.8062
101306.0663
101304.4012
101307.3103
101307.5768
101307.261
101308.8839
101311.3354
101310.8264
101306.7679
101302.0428
101300.9408
101302.8578
101307.2022
101308.8907
101313.2186
101313.1283
101307.6431
101306.2471
101308.8977
101307.9822
101305.8749
101303.0469
101305.1609
101305.9767
101306.1276
101306.6535
101308.706
101309.6889
101307.6533
101303.2043
101299.4331
101301.0523
101307.4341
101308.2812
101309.365
101310.802
101307.7357
101303.8651
101302.3013
101305.265
101306.7701
101302.4175
101302.2128
101303.7504
101305.4162
101304.9645
101305.4979
101307.6256
101307.7224
101303.9003
101299.1229
101301.3908
101307.7799
101307.4363
101304.151
101307.0002
101308.0579
101303.0609
101298.4229
101302.9824
101307.0225
101302.0876
101299.2408
101300.8307
101304.7133
101304.1695
101303.2446
101304.7471
101305.6952
101303.2156
101299.9228
101302.6365
101307.1167
101306.3205
101300.0974
101302.9167
101306.9665
101303.4005
101297.7249
101300.735
101305.2599
101302.1493
101297.7158
101298.3754
101303.0725
101303.8636
101302.3971
101302.1468
101302.3959
101301.46
101300.3999
101302.8608
101304.951
101304.8442
101299.6651
101300.4121
101304.3645
101304.0083
101299.1093
101298.0283
101301.633
101302.5899
101299.2806
101297.2037
101300.7021
101303.5207
101302.8575
101300.7521
101299.4282
101299.5799
101299.9084
101301.6293
101301.7554
101302.437
101301.6203
101299.9268
101301.2426
101303.4653
101300.0827
101295.5551
101297.9555
101302.9104
101302.6192
101297.797
101298.4791
101302.6959
101303.5366
101300.3975
101297.5753
101298.58
101299.1154
101300.0966
101299.5959
101300.9666
101303.3201
101300.4641
101299.2961
101302.4044
101300.1748
101295.1386
101296.7742
101303.1546
101304.5982
101299.3335
101297.7754
101301.4551
101302.9297
101300.5322
101298.5919
101298.7438
101299.1297
101299.1359
101298.8184
101301.7182
101302.3901
101298.7408
101298.7825
101301.2125
101300.0014
101297.7843
101298.1044
101302.1407
101303.3889
101299.0524
101298.5297
101300.7277
101300.953
101300.1934
101299.7633
101299.3764
101298.9422
101310.1176
101310.3455
101307.041
101311.9828
101319.1117
101324.936
101326.6722
101323.1454
101314.9186
101316.1928
101324.6968
101328.0378
101320.3152
101312.4438
101312.1634
101317.5256
101316.9568
101310.8292
101303.1046
101299.3252
101305.8053
101308.0629
101307.2913
101311.8358
101316.1109
101322.5265
101325.551
101324.6936
101320.3131
101320.4279
101324.1599
101325.9751
101320.8504
101315.2782
101314.0928
101316.5991
101314.2526
101308.4059
101302.2684
101300.148
101300.8113
101306.9188
101309.8012
101314.6537
101316.8085
101321.2663
101323.715
101325.7909
101325.715
101324.4943
101322.0438
101321.7933
101320.6758
101318.492
101315.7503
101314.9029
101311.7128
101306.5987
101301.966
101300.8943
101298.6199
101307.1087
101313.1569
101319.2855
101321.2427
101322.0995
101322.0732
101325.0572
101328.4524
101326.3152
101317.9225
101316.354
101319.1937
101320.0286
101315.6616
101312.8496
101310.1414
101307.0089
101302.8855
101300.8873
101299.9003
101307.6834
101314.2465
101320.5229
101323.7456
101323.2552
101321.3434
101323.0307
101327.459
101326.6998
101315.5807
101312.56
101316.6519
101319.3335
101314.3951
101311.0984
101310.1583
101309.2214
101304.5955
101299.9034
101302.2481
101307.107
101312.4469
101318.1782
101323.453
101324.4735
101321.5395
101320.2785
101323.0544
101324.9236
101317.0908
101312.333
101313.9011
101316.7137
101312.9602
101310.331
101310.5577
101311.1017
101305.6575
101298.5032
101303.4116
101305.3908
101309.9701
101315.6455
101321.6285
101326.0869
101322.5075
101317.6394
101317.3272
101322.0294
101319.1149
101313.5214
101311.662
101314.2049
101312.2231
101310.2358
101310.175
101310.3625
101304.9204
101298.4727
101304.3659
101304.5483
101309.6101
101315.5808
101320.0731
101325.9228
101322.1594
101315.4416
101312.7189
101316.9771
101317.2905
101312.9787
101310.0285
101312.4011
101312.0084
101310.0785
101308.409
101306.9203
101302.7115
101301.2499
101307.5619
101306.8445
101311.6701
101317.8863
101319.5372
101321.3976
101319.0161
101315.9318
101312.0835
101312.2751
101311.5339
101310.6167
101308.9712
101310.825
101310.7802
101308.8844
101306.2299
101303.4908
101300.3219
101305.1638
101312.0081
101311.0179
101314.0412
101320.2147
101319.5064
101313.2235
101313.4069
101318.2141
101315.275
101308.9133
101305.3422
101307.2864
101308.4205
101308.6098
101307.5442
101306.7287
101305.2461
101302.62
101299.6551
101306.054
101312.962
101312.6881
101313.6941
101320.251
101319.4058
101306.5555
101307.5902
101318.947
101317.3069
101307.672
101300.5674
101304.0127
101307.3017
101305.7137
101302.9394
101304.5317
101305.9917
101304.3447
101300.8109
101303.2001
101309.4028
101311.3108
101310.9462
101316.6447
101317.6566
101305.4894
101304.6088
101313.6425
101315.0176
101307.2564
101298.4965
101300.427
101304.5167
101302.8155
101299.6459
101303.2167
101307.5265
101306.7968
101302.695
101297.8167
101303.7896
101309.4739
101308.7961
101310.4469
101314.0042
101310.4726
101305.0403
101303.6714
101308.2187
101307.6498
101299.1125
101297.3781
101300.1798
101301.2835
101299.7095
101302.9916
101307.0005
101306.9185
101302.999
101294.7481
101300.1563
101308.8087
101309.1179
101304.3615
101308.2982
101313.9416
101307.0546
101295.1044
101300.9037
101307.5388
101300.7054
101295.3321
101295.9276
101301.0126
101302.1697
101303.0498
101304.2162
101303.2478
101301.183
101295.6415
101300.6133
101308.5425
101311.5596
101301.2247
101302.4957
101311.6689
101308.7165
101293.8472
101296.1107
101304.6182
101301.6996
101294.9905
101293.6318
101300.9053
101304.1342
101302.6878
101300.6017
101298.3399
101298.6403
101299.4879
101304.1717
101307.3834
101311.5726
101301.6467
101298.3674
101305.0449
101308.4853
101298.7234
101294.0048
101298.2076
101300.915
101297.041
101294.4386
101298.8415
101302.4372
101301.3588
101299.014
101296.5927
101298.0476
101302.4778
101306.5582
101304.3172
101308.078
101304.9255
101298.8828
101298.5991
101306.9943
101304.9751
101293.2127
101290.195
101298.8079
101302.7475
101298.1411
101295.5619
101297.5413
101299.7238
101300.3513
101299.9121
101300.0832
101302.8131
101306.0524
101299.417
101301.6123
101307.2254
101301.4452
101295.4335
101304.1305
101306.6379
101292.758
101284.4093
101296.9385
101308.4678
101301.9236
101292.8467
101292.7603
101298.5927
101303.3116
101304.8753
101303.1119
101300.7028
101304.3748
101297.6689
101295.9661
101305.145
101304.8752
101297.2322
101301.4929
101304.266
101294.0251
101286.597
101296.6927
101308.8648
101304.2139
101293.5477
101291.6055
101298.4441
101304.5361
101306.9703
101304.4286
101298.8103
101300.1741
101299.0929
101300.0942
101302.0574
101300.6815
101298.894
101301.164
101301.0618
101296.4356
101294.4872
101299.9477
101304.5514
101302.3498
101296.9977
101295.3226
101298.6127
101302.6792
101304.4612
101302.2599
101304.7404
101324.5266
101311.8061
101305.3012
101313.2
101327.8257
101326.7731
101324.9532
101323.1737
101317.5668
101307.8639
101304.8379
101314.8569
101320.0425
101310.2673
101296.359
101300.1422
101308.0497
101309.7093
101304.6047
101301.3614
101313.0416
101308.7762
101305.4649
101314.9029
101322.8039
101320.5477
101323.1686
101324.7205
101319.3926
101312.9609
101310.3234
101314.5245
101315.3647
101308.9453
101300.8053
101303.9544
101307.4748
101306.1532
101302.1991
101297.1369
101300.4519
101307.7887
101309.5278
101318.1617
101321.1341
101318.979
101322.2142
101323.5107
101319.9586
101318.3606
101314.7158
101312.0474
101308.3995
101307.1296
101305.602
101307.4899
101306.3874
101302.8605
101300.0171
101294.9066
101294.0828
101309.5808
101316.3291
101321.1163
101322.7069
101323.8955
101322.6786
101319.0354
101317.8755
101321.5197
101317.181
101308.3607
101301.6429
101304.7021
101307.9813
101308.0408
101304.7117
101301.6474
101299.9418
101295.2375
101296.6303
101312.3989
101320.7315
101320.8978
101321.6697
101328.317
101324.597
101314.4039
101313.4407
101321.8487
101318.3887
101306.5424
101297.1194
101302.7991
101308.0175
101306.439
101303.0276
101302.7542
101301.8387
101297.6388
101303.9218
101311.9318
101320.0848
101318.0811
101318.5259
101330.6567
101327.8647
101312.582
101308.6538
101318.6542
101319.9343
101308.4657
101296.406
101301.8787
101307.3364
101304.351
101301.4643
101303.7408
101303.2757
101299.0589
101308.9694
101308.1476
101315.5975
101315.4065
101316.2115
101331.0115
101331.3069
101314.1995
101303.7033
101313.1288
101322.1335
101311.8963
101297.8612
101301.7967
101306.9901
101303.0863
101299.701
101302.7092
101302.7191
101300.1532
101310.9374
101304.1206
101311.6098
101315.5425
101316.3829
101328.0682
101330.2279
101316.595
101299.8726
101305.6609
101318.703
101311.1925
101298.5846
101301.6227
101307.0097
101302.3848
101297.6197
101299.5424
101300.6113
101302.414
101311.3931
101304.8438
101312.1594
101319.4381
101319.8504
101321.3906
101323.0435
101318.2085
101304.6853
101302.1478
101307.3548
101306.3404
101298.1617
101301.2545
101305.4375
101300.6464
101296.0063
101297.2714
101298.7757
101304.0244
101311.9617
101311.3518
101315.055
101322.8348
101323.9765
101313.0369
101312.3628
101316.9309
101313.6033
101304.3798
101300.1059
101300.6579
101297.9565
101300.4982
101301.527
101297.7737
101295.6972
101297.8087
101298.8019
101301.1679
101310.158
101316.6508
101316.1783
101321.1831
101325.0902
101308.997
101303.9454
101310.6108
101316.1788
101309.144
101297.0039
101295.567
101297.1948
101298.7805
101296.5836
101295.0975
101296.7118
101300.2542
101300.5106
101295.9677
101306.5984
101316.6468
101313.938
101313.4771
101320.5427
101312.5785
101303.089
101301.3672
101311.5498
101312.0595
101297.2998
101291.373
101294.0478
101296.3543
101293.738
101294.8326
101298.6239
101302.0513
101301.4452
101290.4119
101303.5953
101313.5611
101312.9563
101303.4283
101311.6167
101321.5846
101309.8247
101292.872
101300.7692
101310.8565
101301.6919
101289.7842
101288.1606
101293.7327
101294.6004
101297.1677
101299.3163
101299.9281
101299.9603
101290.6434
101303.2264
101309.8629
101314.495
101300.384
101301.5129
101321.8857
101316.7856
101289.4493
101290.2708
101306.5829
101305.7899
101290.3335
101282.8318
101291.8989
101298.5145
101300.3837
101298.2468
101295.0474
101296.8425
101297.0179
101306.9622
101306.126
101317.919
101306.9986
101294.9427
101309.9486
101317.2987
101294.8115
101286.6755
101297.4784
101304.8205
101293.7847
101283.7052
101291.7884
101300.8395
101301.458
101296.8457
101291.4364
101294.1276
101305.3034
101312.9742
101302.4625
101314.6305
101315.3913
101296.1938
101293.362
101310.1522
101306.7942
101291.4023
101286.6064
101296.999
101298.981
101292.2652
101292.8744
101297.5602
101299.2946
101297.2439
101293.1686
101295.2534
101308.011
101315.3363
101298.7211
101305.4571
101318.3993
101304.0863
101284.5328
101301.0812
101317.4606
101300.4857
101277.5248
101285.3097
101303.9365
101305.8136
101294.4599
101289.5059
101294.2737
101299.7413
101300.5488
101300.2069
101306.557
101311.4442
101294.2279
101294.9388
101313.6009
101311.5328
101286.9653
101294.7608
101320.0407
101307.8786
101273.2059
101275.8911
101306.6395
101315.7198
101295.505
101282.6767
101289.3192
101302.7922
101309.0563
101305.7093
101301.3278
101307.4912
101294.5181
101285.8738
101303.1388
101318.1579
101297.137
101292.4045
101313.4852
101310.1059
101278.7904
101275.0983
101304.04
101317.0022
101298.0582
101283.1631
101289.7935
101302.9566
101309.8631
101306.943
101297.1205
101301.7674
101299.0828
101293.9506
101298.7702
101305.2623
101300.0631
101297.933
101303.9481
101300.526
101291.4895
101290.9613
101300.5206
101308.6681
101300.7308
101291.3779
101293.8024
101301.7188
101305.6993
101303.1946
101309.6256
101331.2634
101310.0439
101316.6079
101310.8001
101325.6676
101327.6561
101323.9047
101324.9008
101325.9331
101303.6151
101288.1094
101301.3713
101316.3977
101310.7265
101285.8201
101278.8045
101289.2035
101302.476
101304.614
101301.6433
101316.7228
101309.9263
101312.8712
101318.3155
101329.0401
101321.27
101320.1765
101318.4121
101317.327
101305.104
101292.3071
101297.1346
101304.5518
101303.0905
101290.9967
101289.4657
101294.4728
101301.0426
101301.6927
101292.493
101301.7636
101310.4552
101311.2002
101322.4374
101329.8379
101317.5345
101317.7655
101312.5481
101308.4856
101309.9716
101300.0182
101292.2534
101288.7105
101292.4088
101296.3088
101299.9219
101299.5381
101298.8829
101298.3851
101287.7288
101295.8333
101311.5309
101313.5271
101320.8215
101326.0574
101322.915
101326.6964
101312.9863
101300.2641
101313.6194
101313.8624
101291.5334
101273.7668
101281.2694
101298.0962
101305.3148
101301.1151
101296.4788
101296.1236
101289.6368
101300.7377
101313.8253
101318.8591
101319.73
101320.529
101328.3467
101334.3785
101317.3573
101294.3821
101310.0408
101324.3935
101298.5541
101270.0153
101275.0086
101296.1526
101304.2032
101299.1928
101294.8905
101296.1731
101296.6145
101312.6769
101314.4776
101323.1298
101319.6532
101316.0753
101332.6264
101338.3569
101321.3875
101293.3512
101296.6001
101320.7958
101310.6645
101281.0031
101277.1045
101292.1231
101298.7298
101295.417
101294.0322
101297.3058
101303.7925
101321.1601
101311.8763
101321.9244
101319.4036
101314.0209
101330.3295
101339.2119
101326.2019
101296.3597
101285.514
101313.3097
101316.7651
101291.1334
101281.1514
101289.8614
101294.427
101292.1256
101293.0914
101298.0875
101306.9942
101321.7835
101307.1057
101317.4345
101319.7653
101316.5766
101323.2292
101334.145
101325.605
101301.5913
101287.8517
101298.642
101304.983
101290.9252
101282.249
101288.7416
101292.4476
101290.4887
101292.2412
101298.4184
101304.6584
101312.3152
101305.5308
101314.9889
101322.3695
101324.1688
101318.6648
101324.905
101322.7414
101303.2052
101290.4706
101291.3595
101294.6801
101284.881
101282.403
101288.4364
101291.6742
101289.8692
101292.1315
101298.5733
101297.5939
101300.6306
101311.5151
101316.4718
101322.6847
101330.7092
101321.2525
101316.0856
101311.8071
101301.8485
101295.1208
101292.3141
101289.6379
101282.7778
101283.3026
101288.6149
101290.794
101289.5195
101292.6848
101298.9141
101287.7378
101296.7109
101320.6619
101320.1041
101316.8917
101328.1239
101327.3864
101313.8923
101299.5076
101300.403
101302.5927
101298.2936
101290.797
101282.0418
101282.6966
101287.9765
101290.0493
101289.1532
101293.0512
101298.7079
101284.5699
101300.3146
101324.627
101322.4103
101305.8036
101315.2727
101330.9652
101319.2326
101292.6727
101295.028
101306.5669
101308.6792
101293.0491
101278.1731
101279.35
101287.2985
101290.5276
101289.4852
101292.5185
101297.1099
101288.7894
101309.2839
101319.2275
101323.138
101296.2731
101299.5985
101330.6119
101326.8564
101291.8713
101283.9939
101301.2597
101312.2104
101293.6853
101274.272
101277.0294
101288.0092
101292.9086
101289.98
101290.2108
101294.5155
101297.8529
101317.0326
101308.4528
101320.3777
101302.1852
101291.369
101318.7295
101327.0448
101297.0272
101278.7503
101287.5064
101302.6908
101292.4291
101276.3612
101279.3662
101291.3369
101296.0252
101290.683
101287.7663
101292.5672
101307.4614
101320.0509
101297.339
101316.4413
101323.3831
101296.9981
101296.8908
101316.6618
101308.3536
101285.557
101277.7329
101289.0505
101292.3797
101283.4714
101285.5034
101294.768
101297.4073
101291.7858
101287.9077
101291.9011
101311.4905
101318.8713
101291.442
101306.9026
101336.8307
101309.197
101280.0814
101298.3279
101317.482
101303.2324
101278.5292
101278.1552
101291.5139
101294.1854
101293.31
101294.8672
101295.659
101293.5454
101291.9517
101294.1664
101304.9347
101315.2338
101293.5554
101296.5629
101328.0692
101320.2344
101282.8288
101284.21
101317.6906
101319.783
101286.0856
101272.2759
101289.661
101305.1897
101300.4438
101291.0824
101290.5963
101295.3942
101298.5386
101298.6309
101301.1713
101308.0654
101299.275
101295.2639
101306.9758
101317.8244
101297.6921
101284.3473
101309.0655
101323.1435
101294.9652
101272.2106
101287.3119
101310.8979
101303.463
101285.5345
101284.9022
101297.198
101304.8598
101302.8326
101301.3052
101304.6593
101302.9894
101296.8793
101286.8021
101312.1327
101315.2916
101290.683
101295.8294
101316.9525
101301.2385
101279.0697
101288.2761
101309.5909
101303.9672
101286.7663
101285.9801
101297.2323
101304.4249
101303.8151
101298.7012
101302.1693
101304.7464
101294.622
101287.9392
101307.389
101310.3627
101294.1579
101294.2479
101305.1994
101301.1778
101291.2687
101293.252
101304.5403
101302.8271
101293.8077
101292.1935
101298.0598
101301.9273
101302.0726
101301.437
101315.7177
101296.5393
101341.9371
101312.2221
101279.8567
101329.534
101357.2771
101303.1418
101274.9206
101311.3155
101326.1293
101284.3101
101254.3785
101283.5299
101303.6683
101286.9586
101276.0227
101287.5182
101298.1987
101292.1676
101309.964
101314.3148
101334.0688
101325.2896
101322.6938
101327.604
101328.9791
101310.1134
101297.2908
101298.8125
101301.9314
101288.2351
101267.521
101276.1001
101290.6018
101287.0965
101283.466
101290.4703
101299.0869
101283.0004
101308.0401
101323.6766
101320.374
101328.2422
101350.2055
101323.0682
101308.479
101315.3436
101312.1234
101282.4932
101277.635
101292.4577
101280.2604
101268.2477
101277.0759
101287.014
101291.6078
101293.8581
101298.5063
101281.0748
101313.9898
101318.3526
101303.1929
101319.2832
101345.8759
101319.7374
101305.5089
101320.8241
101318.907
101272.8296
101260.741
101291.3334
101291.4687
101268.9189
101268.5506
101286.9449
101296.148
101294.8881
101296.2872
101287.5836
101324.8011
101308.7338
101296.3995
101316.1135
101337.6026
101311.5953
101306.2329
101329.7475
101327.8342
101281.9884
101260.169
101289.3455
101299.4707
101271.9265
101262.321
101284.3731
101296.6621
101293.4739
101294.5706
101299.8127
101335.2667
101306.0456
101306.0209
101326.4054
101339.2463
101304.9219
101304.1942
101341.6752
101338.514
101293.5666
101256.8216
101283.9024
101306.9776
101276.4177
101256.3384
101278.1896
101294.0236
101291.6842
101294.0314
101310.9991
101338.5606
101308.8019
101319.1841
101333.8735
101342.1064
101298.2937
101295.8157
101356.3939
101352.8307
101290.2642
101239.0992
101276.5636
101314.792
101280.0865
101252.6721
101272.3743
101291.1541
101290.8641
101294.421
101312.3256
101329.1165
101310.5525
101323.2709
101336.5306
101348.506
101297.3358
101285.145
101355.7769
101359.0144
101278.8443
101226.6296
101267.663
101311.7561
101279.8524
101250.8439
101269.4638
101290.0724
101291.3662
101295.5434
101299.9939
101305.5281
101307.1421
101319.5353
101335.0752
101354.2901
101307.6738
101289.066
101334.2827
101349.622
101296.6781
101244.3928
101260.8209
101296.7762
101277.8674
101252.3455
101270.5638
101290.0614
101292.0196
101296.8733
101282.8619
101284.1924
101304.8549
101317.4089
101327.2114
101350.6426
101324.5606
101305.8199
101310.0905
101315.6059
101299.0364
101271.2892
101261.5318
101284.3223
101277.129
101258.9539
101274.6511
101289.8543
101291.9174
101297.584
101272.3609
101286.2179
101312.1625
101321.4805
101315.2174
101334.9501
101338.6773
101319.7583
101294.7761
101296.6543
101302.4949
101283.6207
101269.9488
101277.6988
101275.9398
101267.8204
101279.251
101288.5768
101290.2202
101296.5164
101280.8661
101310.3603
101321.8253
101329.0805
101304.4165
101311.798
101340.0475
101331.8777
101297.7561
101289.2464
101286.9507
101284.9395
101283.2091
101277.2487
101272.5556
101273.3793
101282.4141
101286.6614
101287.1517
101294.0234
101305.4908
101339.2323
101318.8295
101330.1748
101300.8214
101294.0135
101327.0186
101340.2091
101315.4587
101284.4251
101263.4899
101281.73
101302.4062
101287.7152
101268.8126
101274.1025
101284.2111
101284.949
101284.6524
101291.9291
101322.2901
101350.9777
101307.9315
101318.9527
101310.2091
101294.8595
101305.7538
101333.6577
101336.8759
101285.6364
101243.6006
101282.6224
101323.0279
101297.0313
101262.6151
101272.96
101285.9316
101284.6917
101284.5997
101292.1026
101320.105
101336.555
101296.7994
101301.0392
101331.6407
101314.4081
101283.1445
101311.5358
101345.8583
101292.966
101243.4301
101282.8331
101322.0838
101296.2765
101265.3012
101277.8815
101289.0776
101285.7827
101287.1185
101294.1818
101301.0075
101304.7405
101289.2171
101287.0716
101340.7313
101330.3424
101277.5537
101284.7392
101321.4906
101299.3591
101272.0065
101286.1982
101297.1739
101284.2674
101278.3587
101289.4049
101292.5296
101287.0778
101290.8194
101296.4987
101276.4027
101285.0362
101295.0918
101292.8883
101322.8623
101327.4807
101302.2874
101273.5095
101278.9236
101310.0904
101319.3509
101290.097
101260.0105
101273.4787
101300.8473
101304.291
101293.6501
101286.459
101292.812
101297.6183
101279.3304
101282.9605
101314.5591
101326.0244
101292.2486
101301.8669
101334.7811
101287.7259
101243.6793
101315.3522
101364.8236
101296.9013
101232.9206
101269.6263
101320.3923
101314.5328
101290.8545
101284.3382
101293.059
101297.8283
101303.0706
101290.9061
101322.0262
101359.5746
101275.2048
101281.9652
101351.4791
101308.3311
101241.1867
101317.9497
101374.1614
101303.034
101237.9551
101273.5925
101322.7571
101316.587
101292.4103
101285.8452
101292.4706
101298.512
101309.4808
101298.1569
101313.0579
101316.1109
101282.6426
101300.0848
101325.254
101297.6019
101277.0521
101312.5807
101331.6468
101295.2625
101271.1887
101289.0906
101310.5872
101309.191
101297.9428
101292.1871
101293.1754
101299.3096
101293.6894
101293.5052
101270.909
101335.0312
101359.4321
101260.0469
101281.7985
101346.8812
101319.9572
101289.3297
101299.3885
101297.6154
101256.6117
101234.9936
101271.6251
101306.2049
101299.0285
101278.3677
101274.0229
101288.8085
101291.8341
101303.4522
101319.9816
101350.5494
101335.9368
101315.8259
101317.3781
101338.3184
101311.8961
101285.1269
101291.4457
101292.9212
101260.8822
101239.8533
101251.2423
101276.6277
101283.9955
101280.4441
101281.9911
101295.2808
101288.8275
101320.7304
101344.4505
101340.6742
101312.3191
101356.5779
101358.2915
101335.3175
101302.9968
101274.5104
101278.9737
101289.7524