/*--------------------------------*- C++ -*----------------------------------*\
| =========                 |                                                 |
| \\      /  F ield         | OpenFOAM: The Open Source CFD Toolbox           |
|  \\    /   O peration     | Version:  5.x                                   |
|   \\  /    A nd           | Web:      www.OpenFOAM.org                      |
|    \\/     M anipulation  |                                                 |
\*---------------------------------------------------------------------------*/
FoamFile
{
    version     2.0;
    format      ascii;
    class       surfaceScalarField;
    location    "8";
    object      phi;
}
// * * * * * * * * * * * * * * * * * * * * * * * * * * * * * * * * * * * * * //

dimensions      [1 0 -1 0 0 0 0];

internalField   nonuniform List<scalar> 
91025
(
2.142855999
0.07121179236
-0.08575047943
1.782872319
-0.2252358684
0.253116515
1.412704314
-0.2088856937
-0.1182447014
0.8466015551
-0.3413875242
0.09151328116
0.4101895571
-0.307923044
-0.08838786816
-0.1509529868
-0.4403122175
0.06736153712
-0.6149972144
-0.270600312
-0.1304558146
-1.042394436
-0.1960200577
-0.03535701969
-1.248843021
0.008573187062
-0.1333550157
-1.349006092
0.01809027219
-0.1479738241
-1.366153136
0.04572572501
-0.3000528801
-1.314912898
0.08207216039
-0.2341371352
-1.008361217
0.2880363665
-0.1386863337
-0.4936321054
0.400223003
-0.08908884163
-0.08942281285
0.4224364932
-0.1828227637
0.1144028594
0.2752494856
-0.3243509756
0.1003647544
0.2499771731
-0.2739255669
0.1972551773
0.2173345585
-0.1520108522
0.3602508532
0.2509383947
0.002460380735
0.1178404284
0.008853347391
2.086683393
0.1017752807
-0.1203947589
1.749676317
-0.3881223772
0.2173816516
1.383769395
-0.3939484078
-0.1008250192
0.8084254612
-0.6501145169
0.109856795
0.4023574293
-0.4834577792
-0.07094011105
-0.09575608185
-0.6692016193
0.07684430682
-0.5313842979
-0.4484724394
-0.1384717113
-0.9711260414
-0.4059188294
-0.06091199189
-1.212509572
-0.08283067231
-0.1687725768
-1.349595449
-0.04801381713
-0.1644668259
-1.338755744
0.06222280012
-0.2808125549
-1.243976581
0.1781348635
-0.2221544652
-0.9463477517
0.5471658312
-0.1713946479
-0.4961666797
0.7250166963
-0.1416176057
-0.1365664214
0.759257638
-0.2018727693
0.07738557841
0.5061660216
-0.2923743723
0.0941028555
0.488329307
-0.2389146336
0.1829342512
0.4603717475
-0.152248703
0.3005890686
0.5296053519
-0.02705484437
0.2297810674
-0.01614308536
1.983676938
0.07743359041
-0.1676908043
1.692808539
-0.5151996933
0.1681918113
1.33181765
-0.5406459125
-0.0883055114
0.7847063839
-0.9493416843
0.1300984117
0.4015973478
-0.6201174904
-0.07423312336
-0.05800340572
-0.8218411519
0.07486439553
-0.454019197
-0.5624651287
-0.1394912039
-0.8794526308
-0.6029752567
-0.07192194783
-1.142537368
-0.2151179629
-0.2170645407
-1.305574891
-0.1469359904
-0.168961456
-1.259131638
0.1052261491
-0.2702158652
-1.108041079
0.3082089326
-0.2019276636
-0.8386046619
0.7650351577
-0.2393234735
-0.4933371419
0.9358619226
-0.2237775788
-0.2000841507
0.9768179641
-0.2362377465
0.03641956733
0.6850961764
-0.2511206452
0.09839178881
0.6967391632
-0.2031177899
0.1662473475
0.663849484
-0.1692663856
0.1800857565
0.7600983796
-0.08053297428
0.2964542819
-0.05522436594
1.862637066
0.01400055484
-0.1898680001
1.581906094
-0.6258887628
0.1303952824
1.276541056
-0.621508158
-0.06875184572
0.8008364878
-1.202342658
0.1557698494
0.432446144
-0.7955660087
-0.08164854891
-0.02394181479
-1.045323337
0.05447111591
-0.390075941
-0.675139579
-0.1187444327
-0.7837624188
-0.7711472186
-0.06726427918
-1.049378537
-0.3160544646
-0.2299090059
-1.20671049
-0.1983754997
-0.1653145512
-1.118220741
0.233021049
-0.2410444797
-0.9326007503
0.4646036781
-0.195242966
-0.7194334622
0.9072577455
-0.3068221452
-0.5048587099
0.9929222531
-0.3106206099
-0.2837433112
1.125691124
-0.2597486511
-0.007822519579
0.8597374389
-0.2081777349
0.1071187087
0.8976149536
-0.1745059883
0.1320064903
0.7439810904
-0.2043981363
-0.01008086805
0.7758973736
-0.157281711
0.227966458
-0.1013793706
1.692333116
-0.01830557734
-0.1823014043
1.382837662
-0.7608735231
0.1289039512
1.170959288
-0.6298597033
-0.06053897263
0.7912063619
-1.351481641
0.1820327501
0.460018588
-0.9329923396
-0.08774972625
0.01981546185
-1.301406743
0.04323584286
-0.3148618208
-0.735227854
-0.1103135407
-0.6660627516
-0.8916267736
-0.04597142444
-0.9037308441
-0.3365687085
-0.2486213065
-1.04549432
-0.2228214361
-0.1561435644
-0.9461692762
0.3856978715
-0.2846118319
-0.7730701003
0.5524714588
-0.1930133065
-0.6178220147
0.9543670613
-0.369528338
-0.488618239
0.9223403323
-0.3513647604
-0.3291350533
1.243109914
-0.2772299354
-0.04139191719
1.047789452
-0.1835959581
0.08793044988
1.093850602
-0.1686690183
0.07376978601
0.6769953118
-0.239052616
-0.1930363338
0.5682892276
-0.2111169148
0.02051243809
-0.1300386048
1.533710831
0.03230685455
-0.1367272391
1.227298928
-0.8828837809
0.154701025
1.076095394
-0.5548499423
-0.04830540217
0.7729367967
-1.358260957
0.1961907186
0.4999868391
-0.9375276279
-0.06669122482
0.1006873617
-1.461814053
0.0419091981
-0.2141259703
-0.7286329574
-0.09390372657
-0.5290157899
-0.9528332698
-0.03653349803
-0.7324287204
-0.3011545955
-0.2305188629
-0.8501230132
-0.2465246405
-0.1726562907
-0.7828277703
0.4478617165
-0.3347793236
-0.6652557446
0.5032777031
-0.2258527053
-0.547152992
0.9049271268
-0.3756614477
-0.4393805985
0.7982121593
-0.3461832205
-0.3347425726
1.311831748
-0.2735331509
-0.1177045958
1.197533724
-0.187120921
-0.03652459931
1.225412519
-0.1810195142
-0.08384113863
0.5378923741
-0.2511161496
-0.3589473491
0.288085982
-0.2144438937
-0.1956823691
-0.1216305913
1.32792155
0.1775302989
-0.1036389302
1.071387254
-0.906998167
0.1862404693
0.9526196187
-0.4184675431
-0.06387061976
0.7036606968
-1.295089047
0.1878034784
0.5023341515
-0.8173349684
-0.06156755067
0.185527071
-1.513449397
0.05437508213
-0.09813612849
-0.7020197215
-0.111928759
-0.378713061
-1.029289849
-0.02433985373
-0.5420910974
-0.2327835799
-0.2297268291
-0.6582881105
-0.3276764949
-0.165477795
-0.6239516793
0.4271534051
-0.4443956157
-0.5815009849
0.3142320429
-0.2395183607
-0.4604326308
0.8349590719
-0.3783273575
-0.3257700122
0.6755021371
-0.2975340276
-0.2777612179
1.297969836
-0.2797779206
-0.2033609077
1.155701272
-0.2152300775
-0.2311461695
1.218263558
-0.2113952516
-0.2827771008
0.4170077466
-0.2383902179
-0.4548601037
0.1637470396
-0.168149971
-0.2949541779
-0.08384476393
1.189350962
0.3453242709
-0.08368851625
0.9816737293
-0.8444872692
0.1818205298
0.8752503652
-0.2882176276
-0.07984563285
0.6440837003
-1.262163372
0.1556904878
0.4981779727
-0.6591898127
-0.04599725988
0.262982605
-1.475972785
0.06899828429
0.014541619
-0.7059726894
-0.1122466062
-0.2318476994
-1.124153266
-0.03767479189
-0.3857587818
-0.1774258262
-0.2025648488
-0.5055776841
-0.4585842019
-0.193213256
-0.5001241857
0.3379894651
-0.4987139984
-0.4954487302
0.09151533032
-0.2766895177
-0.3648670512
0.8117822177
-0.3490985301
-0.2046236607
0.5882167139
-0.2660686242
-0.2266305595
1.159792127
-0.2805027223
-0.3284243744
0.8832170834
-0.2615297823
-0.4966367386
1.061491081
-0.2412217437
-0.5338798585
0.3701902646
-0.2075895982
-0.555489475
0.277493387
-0.09442179963
-0.2064595111
-0.0316768624
1.022588946
0.4537710829
-0.09999341587
0.8292189905
-0.8220868353
0.1472490035
0.7424752703
-0.2254728473
-0.09806086554
0.5520830183
-1.316232499
0.1319659142
0.447958518
-0.5438311254
-0.04779341146
0.289461225
-1.434303332
0.09816965607
0.1324939304
-0.6725809975
-0.1161925986
-0.06723869909
-1.233907559
-0.03662094678
-0.2275805441
-0.1759793167
-0.2012646587
-0.3709297556
-0.6615786708
-0.1524565772
-0.371976787
0.1963356961
-0.4449603302
-0.367414048
-0.1284076352
-0.250376301
-0.2450720631
0.8011183257
-0.3336921609
-0.1120940802
0.4776883662
-0.238514651
-0.1830145091
0.8967525316
-0.2879630485
-0.3962729134
0.4289690179
-0.2946879288
-0.6621271738
0.7908954946
-0.2679504586
-0.7121306289
0.3760062833
-0.1835758333
-0.6262065612
0.5577564603
-0.04909126232
-0.002883827261
0.001113190148
0.935142428
0.4392317656
-0.1173727531
0.7228854572
-0.9241503222
0.1001990204
0.6534560974
-0.2027153745
-0.06636163859
0.5199682017
-1.394838699
0.1345780086
0.432376816
-0.4784813664
-0.02343464012
0.3034941171
-1.398649654
0.1188630474
0.2297343862
-0.5565449307
-0.07735392433
0.06987520026
-1.269560791
-0.04782225654
-0.1220633119
-0.2524182896
-0.1839563053
-0.2673372288
-0.8756661216
-0.1383886358
-0.243873191
0.04865849036
-0.3317869003
-0.2134994863
-0.3255262887
-0.2451489353
-0.1636499964
0.7043256715
-0.3214136128
-0.1219490376
0.2806521902
-0.2502246327
-0.222361506
0.5770902724
-0.2661585158
-0.4347061431
-0.02183253044
-0.2912520416
-0.7149326511
0.4819522373
-0.2678555453
-0.8105803472
0.319759007
-0.1877770816
-0.7671024167
0.7590049327
-0.04935515271
0.1523087071
-0.001109854877
0.751130959
0.3898663983
-0.1306010303
0.5520738562
-1.078529396
0.08805835786
0.5185041509
-0.116743977
-0.02942790526
0.4670887655
-1.387971516
0.1536054451
0.4062091971
-0.4028207289
-0.03112494432
0.2993339257
-1.400584748
0.1171984529
0.2871878299
-0.3673016785
-0.05563287663
0.1625146294
-1.255271175
-0.03184186557
-0.03103060936
-0.3491302656
-0.1947079421
-0.1558616911
-1.058730101
-0.09259664465
-0.08152951448
-0.02781323064
-0.2432283714
-0.03660048945
-0.5440683342
-0.2084544687
-0.08846258974
0.453616284
-0.3444002972
-0.1750403883
-0.08161764825
-0.2666823413
-0.2720844669
0.3076276881
-0.2395693791
-0.3575454481
-0.3432447694
-0.2452460327
-0.5787046974
0.2231251067
-0.2541880718
-0.756607721
0.08072641036
-0.2175666228
-0.8884606651
0.656004602
-0.1000882117
0.1039610118
-0.03188566937
0.6414247624
0.3920924122
-0.1055444612
0.4931686823
-1.131510213
0.1099021039
0.4896569374
0.09674357051
0.01595154221
0.4617651815
-1.241365369
0.1684130455
0.4336492831
-0.2843389753
-0.01752492981
0.3395011128
-1.413166622
0.09188399657
0.306544018
-0.2183101246
-0.01029639875
0.1775928572
-1.249729491
-0.01061670296
0.02016177401
-0.4248816044
-0.1448518018
-0.0559978858
-1.158553572
-0.07550868669
0.03164476137
-0.05422441612
-0.1529671779
0.08050933356
-0.7677389865
-0.1909308891
-0.07259542538
0.05207267184
-0.3303866109
-0.2664844953
-0.5421895837
-0.2853517807
-0.3486147936
0.1427672253
-0.1956806709
-0.3216690589
-0.4312819015
-0.1831048587
-0.4665379408
0.03499442552
-0.2117689989
-0.703357418
-0.3226205465
-0.234964373
-1.007336112
0.245609031
-0.1594962917
-0.1388176824
-0.07716950234
0.4539574102
0.506633054
-0.07699068947
0.4031394077
-1.038633001
0.1416297439
0.4011672682
0.3445435613
0.004401243022
0.3560284522
-1.042105828
0.1611239614
0.3938442102
-0.1311538231
-0.02996353449
0.3727575547
-1.427398665
0.05820191197
0.2823798695
-0.168582978
-0.008441812925
0.1567733707
-1.305227109
0.02183700444
0.09199880353
-0.4060362456
-0.1168237709
0.05313007379
-1.19530185
-0.06996078655
0.1153461129
-0.05795179014
-0.153161678
0.1346396218
-0.9558527915
-0.1551791511
-0.01843157209
-0.3314931726
-0.2984414603
-0.2221149763
-0.9638993852
-0.2627787018
-0.3220392874
0.02338732497
-0.1856715448
-0.2923144692
-0.4530866802
-0.1477257987
-0.3954314073
-0.08988178616
-0.170966949
-0.620915452
-0.7300196354
-0.216536961
-0.9627429358
-0.2224622503
-0.1816747028
-0.4266341591
-0.09852550361
0.4272660945
0.6711818857
-0.03759337026
0.4449601585
-0.8807449358
0.1546780773
0.3927636316
0.5000850658
-0.0117590675
0.2795771779
-0.9524427791
0.1403081775
0.352317065
0.04125576133
0.0245462272
0.4076156369
-1.372230482
0.05678409615
0.2672113777
-0.2080972578
0.01894489017
0.136175799
-1.399214907
0.05154864011
0.1444029686
-0.3348418706
-0.03936485149
0.1208264036
-1.21928536
-0.08065927848
0.08852380634
-0.1354135933
-0.1513506786
0.06459607574
-1.078093171
-0.1246451541
0.002003117211
-0.5450049471
-0.18098609
-0.1172199545
-1.222212287
-0.2017321203
-0.2920604396
-0.1652630134
-0.1855912097
-0.3889414649
-0.5767167819
-0.1512708554
-0.5031847588
-0.2103346049
-0.1275199965
-0.6510413077
-0.9694944688
-0.1595698496
-0.8658557368
-0.4914955284
-0.1394500302
-0.5883051833
-0.08428081388
0.3176075735
0.8221410395
-0.01927574062
0.3749755754
-0.7730260466
0.1310268669
0.2691248895
0.4821228333
-0.05959848695
0.1246288891
-1.036410464
0.1025715907
0.2315599588
0.2400426338
0.0685251071
0.3519797638
-1.238651079
0.0639044963
0.2559915856
-0.2110363363
-0.01877635685
0.1479334922
-1.462700275
0.04578927501
0.1970411059
-0.2513074602
-0.02178979401
0.1788236615
-1.299790183
-0.09413545173
0.06433012279
-0.2900819584
-0.201491399
0.006227134857
-1.160266466
-0.1044371226
0.06584981055
-0.4992472795
-0.08989504171
0.05972303663
-1.273912488
-0.1156335572
-0.1685810686
-0.4308307399
-0.201703651
-0.4318180142
-0.8785650303
-0.1822965911
-0.5893187085
-0.3412966127
-0.1167554635
-0.6223040891
-0.973393816
-0.08695337042
-0.6389966285
-0.4070214185
-0.06319488871
-0.5500414588
-0.04165344314
0.3545235369
0.8668944313
-0.01211276428
0.3606617675
-0.7871904952
0.09903872183
0.2560041798
0.365745119
-0.05696722593
0.1158852863
-1.209395213
0.08146261654
0.1800361881
0.3744039449
0.1302093005
0.2772919776
-1.120320861
0.09624678982
0.242026986
-0.1380279958
-0.005387567878
0.1734768902
-1.458223181
0.04196887738
0.193516567
-0.2585568042
0.03428581444
0.1704845519
-1.436835605
-0.06952462409
0.01868576339
-0.5038470059
-0.1792554551
-0.0714886177
-1.270773308
-0.09746415363
0.02594225488
-0.3609603753
-0.005920434072
0.09004795213
-1.222946199
-0.0416299633
-0.1389388541
-0.6927656738
-0.1654838375
-0.4701206422
-1.23331026
-0.1931869486
-0.6525119874
-0.4768646263
-0.1032027821
-0.6154577508
-0.8424635523
-0.0362398099
-0.4978761525
-0.1541795511
0.0006460280188
-0.4026749571
-0.006102837805
0.2270114882
0.8328977776
-0.01875366448
0.1705396989
-0.8902042415
0.05907747634
0.1424784404
0.3105902601
-0.05284240681
0.09274977608
-1.324074613
0.03578981049
0.0943611152
0.3947324249
0.08236384949
0.1337269648
-1.087526253
0.07374409256
0.1793846982
-0.01754117208
-0.03864050401
0.1749959389
-1.409945834
-0.001004558402
0.173821038
-0.2901748974
0.02188888849
0.169219375
-1.539653228
-0.03756229007
0.09218745823
-0.6445278803
-0.1731584601
-0.00988648295
-1.40716758
-0.1242610995
0.02190559145
-0.3302870612
-0.02032925488
0.07310426799
-1.224992584
-0.006418941187
-0.07670951093
-0.8221912171
-0.1282188889
-0.3501341501
-1.466299107
-0.1808901475
-0.5177255247
-0.5723846622
-0.1070013989
-0.4659682211
-0.7511829052
-0.0160244713
-0.3473650384
0.04622040844
0.02647829741
-0.2910745255
0.01490643286
0.2442744376
0.762087722
-0.014057128
0.1197007314
-1.035107621
0.04787161082
0.1759856713
0.385341577
-0.00658831972
0.2021361204
-1.290504271
0.04108393809
0.1110714312
0.2589979271
0.039563401
0.05719461881
-1.22000647
0.06663530604
0.1004970534
0.02971338495
0.00248098006
0.119165347
-1.392140727
0.006519176101
0.09978641641
-0.3314439247
0.06172573591
0.120208352
-1.555860587
0.02469634338
0.1307589163
-0.6512922804
-0.09748528279
0.03719262303
-1.564623689
-0.1263385108
-0.06844685869
-0.5601704503
-0.04300221567
-0.07316121965
-1.364801244
0.005394107877
-0.1251471216
-0.8391595244
-0.0587076155
-0.2534750673
-1.509419244
-0.1330029619
-0.3620698611
-0.625560207
-0.08685483022
-0.3484564673
-0.7769746992
-0.01536661149
-0.307725117
0.08099195185
0.02521751085
-0.2922971007
0.01197328981
0.0657500076
0.7022842037
-0.006058188659
-0.03472688263
-1.159537733
0.01741727918
0.0454822385
0.5281900284
-0.0005030784635
0.1517420112
-1.142470348
-0.01000164012
0.07919907989
0.1083748891
-0.04645952343
-0.01915959397
-1.422993731
-0.008216410182
0.002826245599
-0.02038417442
-0.02074941625
0.04620282268
-1.376052243
-0.03009744832
0.05992019625
-0.2841884033
0.02144004112
0.1156985404
-1.440128738
0.03226445149
0.1890048008
-0.5579734348
-0.07213592646
0.1226243208
-1.675950253
-0.1287324282
-0.03191906317
-0.903677439
-0.09457546675
-0.1027244213
-1.59160748
-0.01388002843
-0.08789185751
-0.8048321904
-0.03216162217
-0.08653781158
-1.396102253
-0.07029138324
-0.1283111513
-0.6172274746
-0.06439467638
-0.1554411493
-0.8837501624
-0.02351488792
-0.1910500418
-0.08053768951
-0.01071503774
-0.3653618295
0.002622551901
0.07812744313
-0.003518980722
0.05677969846
0.02869023761
0.1085968556
0.021875544
0.09838932911
0.005116312449
0.04431550576
-0.02262106528
0.01167500295
0.03651669681
-0.002592271576
0.01957419936
-0.004349629396
0.01341311334
-0.001472888283
0.03192190857
0.02619301942
0.02335063429
0.0814047843
-0.0005681315559
0.04079057726
-0.05187421505
-0.06875397594
-0.05162950642
-0.1012471944
0.004320514481
-0.07079322375
0.01191005559
-0.05455265358
-0.02564949541
-0.042434114
-0.01161391245
-0.05958781814
-0.009166556945
-0.1190469916
-0.01826887446
0.003531749215
2.238105001
-0.0373320377
-0.2285566966
1.682531352
-0.3708276742
0.3735934231
1.336973348
-0.1720606232
-0.2610732224
0.8466898879
-0.2722120159
0.253687383
0.3827230913
-0.2637654229
-0.1529541858
-0.2127863641
-0.4268707568
0.1114958488
-0.6674768164
-0.3065454977
-0.220359106
-1.10452804
-0.2822952523
-0.08476538166
-1.397795751
-0.09448763659
-0.2733099901
-1.473894913
0.0211757647
-0.2389706287
-1.310324627
0.131945064
-0.4335464842
-1.12430028
0.1217898981
-0.4278324142
-0.9575355795
0.1307978125
-0.3906278687
-0.6700324846
0.2060782925
-0.2857197837
-0.2705333046
0.3622023353
-0.2756093076
0.1782233249
0.3951602957
-0.4444309075
0.3594139441
0.3466386789
-0.4352678223
0.4268492032
0.1834735142
-0.352269164
0.4166105152
0.1101486037
-0.09329201243
0.01241745599
-0.03743521142
2.161116407
-0.04100266518
-0.2729700546
1.694528811
-0.5921768412
0.3579118004
1.337221945
-0.3404772362
-0.2168712334
0.8015917443
-0.5519994704
0.2730131722
0.3528606054
-0.479480929
-0.118464486
-0.1906944279
-0.6870587114
0.1624410644
-0.6060488847
-0.4584397699
-0.200535224
-1.026826913
-0.4846979219
-0.1007052149
-1.320631517
-0.2101090454
-0.3030027097
-1.428993481
-0.0143527685
-0.2683213585
-1.302651379
0.1859144568
-0.4507084715
-1.125211085
0.2227364924
-0.4190003213
-0.9286167382
0.2757133905
-0.4071250982
-0.6141507951
0.4117005787
-0.343409674
-0.2482999489
0.6724380842
-0.3243751328
0.1421026769
0.6876398771
-0.4360856319
0.2899496154
0.6130479076
-0.394353079
0.3598098327
0.361723439
-0.3286014972
0.3788703815
0.2759403713
-0.110905086
0.05804915139
-0.05862542497
2.020785393
0.001242012056
-0.3354178801
1.683026381
-0.6513883252
0.3347865234
1.315975953
-0.4848254511
-0.1969939636
0.7561918325
-0.8469482423
0.276696891
0.3312140886
-0.6521696035
-0.1313384639
-0.1673051556
-0.8803521956
0.1735192088
-0.5557026967
-0.5249097451
-0.1857010806
-0.9449235938
-0.6152300806
-0.09012918985
-1.204722397
-0.3020555072
-0.3586596469
-1.337252309
-0.0943060289
-0.3110115328
-1.258111652
0.1928234968
-0.5040433323
-1.109635972
0.3314434697
-0.3889755062
-0.85609571
0.4705045507
-0.4630609709
-0.5155568086
0.62230924
-0.4372989175
-0.2042593268
0.9139788002
-0.4142250373
0.09591426689
0.8635906227
-0.4215307217
0.2042095205
0.7929459503
-0.3483437586
0.2808184085
0.5050834275
-0.3190623725
0.3021303394
0.459659489
-0.1574186017
0.1160836305
-0.100946242
1.88749135
0.05760812343
-0.35563801
1.645554913
-0.6442600084
0.3104778885
1.285130908
-0.5784390744
-0.1706650116
0.7414397451
-1.111672282
0.2739087336
0.3511268256
-0.799440962
-0.1596935822
-0.112075016
-1.092740786
0.1351277418
-0.4987929326
-0.6152744636
-0.1411479364
-0.8567014551
-0.7318658312
-0.05667575481
-1.078349618
-0.3541503932
-0.3530735377
-1.209586273
-0.1782730199
-0.3263911
-1.178062392
0.1832960176
-0.5161959062
-1.051562698
0.4229811904
-0.3586071437
-0.7723137738
0.6863666832
-0.4928233212
-0.4241390083
0.8259378946
-0.5301532499
-0.1919085234
1.113437867
-0.4885675641
0.02401417799
0.9812361291
-0.409631875
0.1039953988
0.9296915667
-0.3167346662
0.1845634195
0.5995106005
-0.3396979386
0.173404083
0.5665188992
-0.2331177437
0.1248243287
-0.1537024664
1.712747273
0.1135851843
-0.3425595372
1.469746877
-0.6775582375
0.3149444002
1.184768697
-0.6279829692
-0.16917676
0.7033423262
-1.320099553
0.3019528459
0.3629020181
-0.8885577225
-0.175794896
-0.04641853413
-1.306042758
0.1189614261
-0.4296778177
-0.7005218839
-0.1400058805
-0.7591008781
-0.8339018953
-0.01940941174
-0.9404909638
-0.3311097671
-0.3810577758
-1.052451344
-0.2481941696
-0.3212789974
-1.027349406
0.187687877
-0.6432539098
-0.9336734388
0.4659713563
-0.3354753551
-0.6601016316
0.8755219123
-0.5570979834
-0.3386391519
0.9508306015
-0.5633183437
-0.1821803555
1.265255586
-0.5449196969
-0.03555551391
1.065058568
-0.40542055
0.02209794794
1.047939242
-0.3218852139
0.09848238144
0.6266614064
-0.3763061626
0.03523769078
0.5592700439
-0.2958242857
0.05592284954
-0.1883764487
1.564248196
0.1617994582
-0.2632158715
1.291262044
-0.7775975579
0.3303599078
1.087152891
-0.6169649571
-0.1390639082
0.6862805497
-1.422616017
0.3397356452
0.4017266662
-0.9013580721
-0.1191247353
0.05237648975
-1.432497349
0.1296869539
-0.3171857801
-0.7524138345
-0.1202378281
-0.6357797441
-0.9216880845
-0.01026747813
-0.8105602017
-0.2622892559
-0.3426960847
-0.9068635425
-0.2899258472
-0.3234407614
-0.8581034536
0.1851500843
-0.7462588247
-0.789260992
0.4211734977
-0.3854402964
-0.5607581984
0.967040609
-0.574698116
-0.2885934965
0.9708185619
-0.5581565965
-0.2048026697
1.324992504
-0.549591588
-0.1311318108
1.08624939
-0.4257298365
-0.1081879963
1.122571639
-0.3464399939
-0.04758076934
0.5985437959
-0.3976475529
-0.1277261149
0.4811237836
-0.3077899383
-0.04353922008
-0.1814040321
1.361017067
0.2411186951
-0.2132544736
1.081226134
-0.8999862221
0.3524803984
0.948012745
-0.5011978876
-0.1403165972
0.6356593888
-1.427236083
0.3636549917
0.4057927951
-0.7924757544
-0.09691652513
0.1209016814
-1.452641697
0.1665637619
-0.1973867743
-0.7542306072
-0.1598808047
-0.4898928869
-1.038912644
-0.003487344413
-0.6726002647
-0.1888854193
-0.354637247
-0.7626066994
-0.3340836902
-0.2859882896
-0.6576390743
0.2478066612
-0.980719767
-0.6117560524
0.2809131875
-0.4249873844
-0.4354220023
0.955966195
-0.6339825251
-0.2230781385
0.8701372796
-0.5029064097
-0.2022162974
1.284151323
-0.5687537656
-0.2039998267
0.9819672374
-0.4634520145
-0.239278987
1.102047328
-0.3929520776
-0.1910442475
0.529377646
-0.3919233111
-0.2511225176
0.433413341
-0.2640822757
-0.1007090518
-0.1376375565
1.216590259
0.3329872222
-0.1759102461
0.9586674407
-0.9478533525
0.3263422601
0.8723837604
-0.3125431185
-0.130521986
0.6226229296
-1.349385282
0.3382561679
0.4284319341
-0.6262210863
-0.06515762667
0.1830961225
-1.387079655
0.1954500747
-0.0745916486
-0.7147033225
-0.147541441
-0.3221451445
-1.151708097
-0.02272300125
-0.5586308556
-0.138604377
-0.3195366478
-0.6568944897
-0.3908943151
-0.3021246246
-0.496305711
0.3956503226
-1.136659489
-0.4402144844
0.1054821492
-0.4967298826
-0.3250035694
0.8901587457
-0.6378386712
-0.1804896041
0.6992150115
-0.4929971139
-0.2248240774
1.143472704
-0.5691644638
-0.304821203
0.7471686174
-0.5170872273
-0.404045695
0.9683433131
-0.4265329343
-0.3803252157
0.4494961539
-0.3640071959
-0.4017885927
0.4751163853
-0.1838583621
-0.07183545347
-0.07350476397
1.029015817
0.4095845539
-0.2238579043
0.8037311424
-0.9612014142
0.2535185659
0.7443179459
-0.1275340598
-0.1604455862
0.5555892607
-1.306545144
0.3119080776
0.3920298687
-0.5047808568
-0.0836554674
0.1852076209
-1.351860183
0.2296803961
0.02012742384
-0.6160793903
-0.1288316756
-0.1458832935
-1.244301634
-0.001914285632
-0.3704986098
-0.1519934731
-0.3358721215
-0.5098559278
-0.5256145848
-0.2382975918
-0.3724448265
0.4381405006
-0.9233455174
-0.3007890999
-0.09118601176
-0.4134224517
-0.2000386012
0.7758119865
-0.6317712878
-0.1276778689
0.4696532256
-0.4735976079
-0.2260037041
0.9339752522
-0.5770732781
-0.347668877
0.4194821527
-0.5358175206
-0.4878212392
0.764498215
-0.4516998697
-0.4878657999
0.3582887287
-0.33740039
-0.5010930272
0.5612214452
-0.128901266
-0.007798813808
-0.02978593119
0.950426019
0.4323560524
-0.2602412862
0.7569969352
-0.9838910053
0.1604704389
0.6704582603
-0.04427405158
-0.1310649357
0.5269846611
-1.317646544
0.304214672
0.3907561607
-0.4685584466
-0.05379295147
0.1926547934
-1.39062799
0.2406746607
0.106496493
-0.4488407183
-0.02327377457
0.008106981535
-1.224453985
0.01246726664
-0.2099555123
-0.2115724591
-0.3126646974
-0.3902936784
-0.7196351928
-0.2610255997
-0.3030228783
0.3506826807
-0.6484694059
-0.2029143288
-0.2743275649
-0.3694984937
-0.1265745856
0.6060704208
-0.5707247497
-0.1326753007
0.1909010515
-0.5026908568
-0.2838610489
0.6852273484
-0.5311430734
-0.4033118422
0.1053897176
-0.5094477363
-0.5413317207
0.5495880087
-0.4333402774
-0.5794874698
0.2298059718
-0.3415958238
-0.6417772326
0.5806992765
-0.133506208
0.01463816114
-0.03428830072
0.7811957057
0.4528958116
-0.2810090826
0.6296782891
-1.041363803
0.1512194949
0.5228290897
0.003645964383
-0.08773245576
0.4288351183
-1.343468084
0.3278862017
0.3546354808
-0.4128176551
-0.07013545745
0.2044532811
-1.483303155
0.216870481
0.1472820979
-0.2403351211
0.02261637073
0.09835886527
-1.143366493
0.05631795967
-0.06863314857
-0.2617132067
-0.3485897656
-0.2465140119
-0.9466958327
-0.2156126356
-0.2070637187
0.217493108
-0.4994169656
-0.09391138402
-0.4599706487
-0.2786375861
-0.03487010357
0.4106019583
-0.5647673392
-0.1112528786
-0.1599388528
-0.5046697278
-0.2968417041
0.4316664097
-0.4855311486
-0.3712711148
-0.1286639637
-0.424429724
-0.4772793937
0.376091855
-0.4013250167
-0.5638919995
0.02168660952
-0.3706733511
-0.7148945764
0.4459023651
-0.2049433038
-0.06943069266
-0.0784427807
0.7007336604
0.496184765
-0.2088047347
0.5776160831
-1.071725074
0.2125018573
0.4870132769
0.1044638555
-0.003252909561
0.3985949739
-1.261829253
0.358541654
0.3919615392
-0.2636589822
-0.01835274989
0.3021279843
-1.514681137
0.173401884
0.1903297157
-0.09967717526
0.08653828547
0.1198710433
-1.087583908
0.08283367152
0.002796616606
-0.2825333577
-0.2308656741
-0.1308186567
-1.143815396
-0.1882139229
-0.1418681605
0.0431461826
-0.3140741184
-0.0517541096
-0.6190138167
-0.2462831248
-0.02485091412
0.2021847098
-0.4722712179
-0.1349235208
-0.5028917233
-0.4987859268
-0.3301639229
0.1934731542
-0.4032261798
-0.3838046803
-0.2872493088
-0.3379879318
-0.4673544458
0.2278122247
-0.3369646017
-0.5941150135
-0.2561548785
-0.3924752414
-0.8053105731
0.1751156819
-0.2760411552
-0.2344339147
-0.1399443911
0.5076265914
0.6200986069
-0.1217144497
0.4375895331
-1.040506575
0.294037974
0.3845148596
0.2642783181
-0.00889653962
0.285139062
-1.114480058
0.3443894679
0.3495315802
-0.004382866753
-0.008333789159
0.3684638229
-1.455471576
0.1291317871
0.2033216572
-0.1119708314
0.02942291791
0.077784193
-1.159309821
0.0966588334
0.04206154867
-0.248341573
-0.1455078571
-0.01719937724
-1.272291438
-0.1465687968
-0.02589460499
-0.09828093978
-0.3208768264
0.00830595299
-0.7623544977
-0.2160127841
0.01630479198
0.04631642546
-0.4084860201
-0.07992160445
-0.7713566936
-0.4306248605
-0.2586557239
-0.004404173714
-0.3750514845
-0.3377852458
-0.4524050586
-0.2887870437
-0.4418556478
0.06721084833
-0.2884029229
-0.5662813073
-0.5276205945
-0.364824647
-0.7633392461
-0.08432638698
-0.2983242777
-0.3895430041
-0.1619087288
0.4741026513
0.7636470169
-0.03021063895
0.445636159
-0.9622756073
0.322269321
0.3990282067
0.4026899433
-0.01754818398
0.2578247657
-1.03648228
0.2939477269
0.3188983669
0.2582147235
0.1030840485
0.4183880206
-1.323900921
0.153901097
0.2406020253
-0.2323821939
0.02496517692
0.04555111137
-1.332942191
0.102171546
0.03261673405
-0.1826438287
0.02274277105
0.05615848971
-1.311157562
-0.1160356698
0.03034410243
-0.23927141
-0.2922164212
-0.007227961156
-0.9304165737
-0.2047198472
-0.0308221591
-0.06886578097
-0.2512731586
-0.08150024381
-0.9121457461
-0.3243640395
-0.229693069
-0.2005197064
-0.3369047461
-0.3711580505
-0.6816002434
-0.2873658155
-0.5278315053
-0.1213223738
-0.2325328381
-0.6268536479
-0.7074808259
-0.2826336886
-0.7207247946
-0.2034527735
-0.2278606916
-0.450002094
-0.1330629099
0.3389320114
0.8737527991
-0.01524728561
0.3342827645
-0.899221291
0.2611614828
0.3111137018
0.4535134474
-0.09344509904
0.1666952456
-1.139027845
0.1829184823
0.1728268186
0.3915968
0.1485376498
0.3118047045
-1.192494742
0.1705191727
0.2422516476
-0.2768985122
-0.04924383266
0.06161642819
-1.49421611
0.04101504977
0.03587624163
-0.1180450812
0.03304043232
0.1078389162
-1.293968526
-0.1016557125
0.1302501933
-0.3615801215
-0.3441840227
0.04197685388
-1.149287239
-0.211194518
-0.008248832874
-0.1534822281
-0.1724784538
-0.02460067804
-0.9620836267
-0.2076845364
-0.1492804528
-0.3747324415
-0.3278577777
-0.324517734
-0.9682202447
-0.3092767976
-0.5167433179
-0.3052462903
-0.2144656031
-0.5745745556
-0.7633118961
-0.1760149522
-0.5648820452
-0.1365111136
-0.1111546203
-0.4022577692
-0.06722248962
0.3772940484
0.8983181637
-0.03277911467
0.3282573341
-0.9062679251
0.16440714
0.3340344528
0.4169905902
-0.08689476801
0.2094474349
-1.334108398
0.1308735416
0.1153969173
0.3351590282
0.2203357581
0.1920868141
-1.132449574
0.2456224281
0.2440027825
-0.1801556065
0.00893440783
0.1203483141
-1.548583142
0.02271776064
0.01785423451
-0.1314905743
0.07244669494
0.07481162956
-1.2861286
-0.04028975229
0.1425203201
-0.4706280858
-0.2315086808
0.06434454841
-1.384096624
-0.200378561
-0.05742458251
-0.2843615149
-0.09576369074
-0.1007597206
-1.024254171
-0.1174801036
-0.1842585484
-0.5137869099
-0.2340045436
-0.3316345196
-1.204113195
-0.2881483912
-0.510229449
-0.4492405646
-0.1798856051
-0.549134957
-0.7574347182
-0.1005594473
-0.4936854245
-0.01006998356
-0.0152638894
-0.3255887493
-0.01571447274
0.2329349599
0.8659719883
-0.07026787033
0.1422464826
-0.9906669065
0.05776734124
0.1869477546
0.4023723453
-0.07764721108
0.1713565037
-1.441097709
0.05812040711
0.03741656525
0.2026625348
0.09978615815
0.04931349133
-1.176304239
0.1708641368
0.1859017935
-0.01282907485
-0.01006154616
0.169477542
-1.495896625
-0.06357319967
0.01897048375
-0.2130717713
-0.03461921812
0.03679102547
-1.320504293
-0.00709628762
0.1843745144