/*--------------------------------*- C++ -*----------------------------------*\
| =========                 |                                                 |
| \\      /  F ield         | OpenFOAM: The Open Source CFD Toolbox           |
|  \\    /   O peration     | Version:  5.x                                   |
|   \\  /    A nd           | Web:      www.OpenFOAM.org                      |
|    \\/     M anipulation  |                                                 |
\*---------------------------------------------------------------------------*/
FoamFile
{
    version     2.0;
    format      ascii;
    class       volScalarField;
    location    "8";
    object      rho;
}
// * * * * * * * * * * * * * * * * * * * * * * * * * * * * * * * * * * * * * //

dimensions      [1 -3 0 0 0 0 0];

internalField   nonuniform List<scalar> 
30538
(
1.265327777
1.289336325
1.28980773
1.289845771
1.289859084
1.289844708
1.289890297
1.289903938
1.289954399
1.290008022
1.290043265
1.290012656
1.289972076
1.28996638
1.289992698
1.289987327
1.289937227
1.289866073
1.289891311
1.296088203
1.265339098
1.289395957
1.289818059
1.289845448
1.289886718
1.289901816
1.289953913
1.289955294
1.289985884
1.290017702
1.290046402
1.290035042
1.290019091
1.290017022
1.290024918
1.290000232
1.289949098
1.289894789
1.28994132
1.296097133
1.265617072
1.289444431
1.289804213
1.28981855
1.289888163
1.289919756
1.289972697
1.289974174
1.289998823
1.29000905
1.290021071
1.290024346
1.290033553
1.290037815
1.290030641
1.28999465
1.289943786
1.289897418
1.289953587
1.296187085
1.265600196
1.289469088
1.289800176
1.289812456
1.289893575
1.289925409
1.289969764
1.289981727
1.290015122
1.2900111
1.290002464
1.290004781
1.290026358
1.290036602
1.290029133
1.289997785
1.289952838
1.289902771
1.289943144
1.296123699
1.266276532
1.289471026
1.289807163
1.289826028
1.289902902
1.289923872
1.28995639
1.289983298
1.290032112
1.290020888
1.289991959
1.289979197
1.289992833
1.290004387
1.290009713
1.290003061
1.289971352
1.289909564
1.289915066
1.296322332
1.266380647
1.289446841
1.289823082
1.289854588
1.289914477
1.289922465
1.289945419
1.289980046
1.290034194
1.29002547
1.28999111
1.289957552
1.2899488
1.289954032
1.289972104
1.289993619
1.2899828
1.289920449
1.289897149
1.296175535
1.267573271
1.289453899
1.289841837
1.289882082
1.289925545
1.28992767
1.289946198
1.289969632
1.290012624
1.290012041
1.289991184
1.289945952
1.289914352
1.289905725
1.289927386
1.289962608
1.28997715
1.289931979
1.289906707
1.296438898
1.267797382
1.289475704
1.289855494
1.289895558
1.289926297
1.289930619
1.289951733
1.289954901
1.289971844
1.289981549
1.289981426
1.289937765
1.289894646
1.289873388
1.289888354
1.28992244
1.289957842
1.289940102
1.289933826
1.296198748
1.269531056
1.289530495
1.289851595
1.289883789
1.289910094
1.289920919
1.289950237
1.289941032
1.289935466
1.289943584
1.28995747
1.289924366
1.289881822
1.289852539
1.289866497
1.289898735
1.28993708
1.289934346
1.289944088
1.296402351
1.269827858
1.289559969
1.289829164
1.289858465
1.289884695
1.28989909
1.289936162
1.289926875
1.289912861
1.2899068
1.289918848
1.289898217
1.289865198
1.289836555
1.289860185
1.289895282
1.289921723
1.289910196
1.289920748
1.295893634
1.272095179
1.28959521
1.289807624
1.289840886
1.289873721
1.289881562
1.289909682
1.289906527
1.289899988
1.289873386
1.289876066
1.289867076
1.289844283
1.289821047
1.289860626
1.289905814
1.289910532
1.289873687
1.289872986
1.295900869
1.272402672
1.289600462
1.289804921
1.289843166
1.289879911
1.289876037
1.28987448
1.289875616
1.289878402
1.289843932
1.289839385
1.289840394
1.289828364
1.289816308
1.289854867
1.289895462
1.289890076
1.289842759
1.289842804
1.295149161
1.275285682
1.289639422
1.28981675
1.289849693
1.289887129
1.289875317
1.289839125
1.289834661
1.289846005
1.289820633
1.289819424
1.289820792
1.289827198
1.289818968
1.289834639
1.289851519
1.28985062
1.289830464
1.289846949
1.295075537
1.275570016
1.289664508
1.289827007
1.289841244
1.289868208
1.289866027
1.289814921
1.289798291
1.289808892
1.289807241
1.28981053
1.28980452
1.289823319
1.28981896
1.289805054
1.289793073
1.289800109
1.289826624
1.2898746
1.294137368
1.279003911
1.289714705
1.289823696
1.289813027
1.289822795
1.289842002
1.289809182
1.28977569
1.289780008
1.289801718
1.289811519
1.289786107
1.289804086
1.289804764
1.289783184
1.289751348
1.289765937
1.289818453
1.289879795
1.293941135
1.279159231
1.289727459
1.289810136
1.289785409
1.2897729
1.289809066
1.289809103
1.289766383
1.289759455
1.289796906
1.289813306
1.289771688
1.289764932
1.289772238
1.289775197
1.289754384
1.289759057
1.289793224
1.28983702
1.292817156
1.283079071
1.289744335
1.289793813
1.289773762
1.289752908
1.28978244
1.289795817
1.289760981
1.289749365
1.28978643
1.289813849
1.289767917
1.289726447
1.289735715
1.289779729
1.289790952
1.289775741
1.289755359
1.289755847
1.292448936
1.2830117
1.289728821
1.289781798
1.289772381
1.289760026
1.289760671
1.289768256
1.289749164
1.289741215
1.28976846
1.289812491
1.289772853
1.289707248
1.289713456
1.289783598
1.289825207
1.289795189
1.289724344
1.289682597
1.291239037
1.287395257
1.28934228
1.289758035
1.28921065
1.289760354
1.28912501
1.289705023
1.289232742
1.289712472
1.289446025
1.289794626
1.289631095
1.289738399
1.289649743
1.289819711
1.289807144
1.289840349
1.289701507
1.28968791
1.2908673
1.315506961
1.252346057
1.308048365
1.24705041
1.299831816
1.246498903
1.294714944
1.250741683
1.293580659
1.258490816
1.29601136
1.267856097
1.300027052
1.276354454
1.303077058
1.281701778
1.303582128
1.282779483
1.301362313
1.280502572
1.26102437
1.28929771
1.289826535
1.289841589
1.289860087
1.289870938
1.289939879
1.289946576
1.289951337
1.28995739
1.289994837
1.290013404
1.289994573
1.289955463
1.289948466
1.289963099
1.289946884
1.289885133
1.289923743
1.297883038
1.261021587
1.289337018
1.289835348
1.289853098
1.289887054
1.289903155
1.289977052
1.289987909
1.289994452
1.289996491
1.290021819
1.290031861
1.290022437
1.289998451
1.289988279
1.28998364
1.289957121
1.289903301
1.289955081
1.297918689
1.261323055
1.289364064
1.289820778
1.289844588
1.289900511
1.289919903
1.289978042
1.289992412
1.290014998
1.290015812
1.290018387
1.290012675
1.290016697
1.290014875
1.290004048
1.289978767
1.289941813
1.289895835
1.289957594
1.298076387
1.261298643
1.289380503
1.289816833
1.289846291
1.289922899
1.289945075
1.289971864
1.289985775
1.290027924
1.290030486
1.290010581
1.289983811
1.289995854
1.290015253
1.290010429
1.289973795
1.289934546
1.289896582
1.289958262
1.298115423
1.262030087
1.289399053
1.289819724
1.289849741
1.289933282
1.289958913
1.289965227
1.289977016
1.290028542
1.290033419
1.290002944
1.289958885
1.289968079
1.289995484
1.289997634
1.289965214
1.289935985
1.289905004
1.289957384
1.298413829
1.262118399
1.289395303
1.289825404
1.289853963
1.289928658
1.289958213
1.289965155
1.28997049
1.290012182
1.29001985
1.289996992
1.289948004
1.289942268
1.289960317
1.289968359
1.289951701
1.289939403
1.289915079
1.289955335
1.29839955
1.26341428
1.289411403
1.289832998
1.289862117
1.289923302
1.289953083
1.289973544
1.289965779
1.289980591
1.289989292
1.289988135
1.289947497
1.289922909
1.28992213
1.289933404
1.289932969
1.289937863
1.289919165
1.289950542
1.298701335
1.263676241
1.289431214
1.289841596
1.289873583
1.289921416
1.289944155
1.28997682
1.289958363
1.289945159
1.289952046
1.289967225
1.289939386
1.289908034
1.289892808
1.289903051
1.289913002
1.289928419
1.289913486
1.289941891
1.298491385
1.265618423
1.289497787
1.289849861
1.289881029
1.289919555
1.289928401
1.289959132
1.289942252
1.289927689
1.289922942
1.289933917
1.289914434
1.289892484
1.289873965
1.289881639
1.289896341
1.289915023
1.289898781
1.289923086
1.298637323
1.266039279
1.289549381
1.289851055
1.289876958
1.289912438
1.289906845
1.289918489
1.289919765
1.289928364
1.289906895
1.28989159
1.289876521
1.289874244
1.289861161
1.289864966
1.289880507
1.289898285
1.289880686
1.289902048
1.29809242
1.26864066
1.289602765
1.289843177
1.289864097
1.289905761
1.289892268
1.289874704
1.289889193
1.289929736
1.289892921
1.289852664
1.289838835
1.289855889
1.289848679
1.289847463
1.289864217
1.289881516
1.289865439
1.289882802
1.297992125
1.269113792
1.289603846
1.289831865
1.289851582
1.289897683
1.289886646
1.289845499
1.289857497
1.28990478
1.289871133
1.289828323
1.289811243
1.289835166
1.289834722
1.289829231
1.289841095
1.289860358
1.289854071
1.289877333
1.297103917
1.272430398
1.289623753
1.289828567
1.289843457
1.289881967
1.28988178
1.28983477
1.28982547
1.289851965
1.28984414
1.289823933
1.289795322
1.289811435
1.289815818
1.289814864
1.289817326
1.28983348
1.289841139
1.289875455
1.296826419
1.272904877
1.289628328
1.28983155
1.289838808
1.289847892
1.289861696
1.289836437
1.28980416
1.289791529
1.289817749
1.289829152
1.289785935
1.289780589
1.28979161
1.2898048
1.289799041
1.289802018
1.289820542
1.28986814
1.295680871
1.276879204
1.289679244
1.289835653
1.289832079
1.289801627
1.289828183
1.289839946
1.289796816
1.289755382
1.289795231
1.289828758
1.289779828
1.289750353
1.289762208
1.289796062
1.289790206
1.289780488
1.289793849
1.289839353
1.295235471
1.277242682
1.289708447
1.289830368
1.289822765
1.289765697
1.289791921
1.289830311
1.289799436
1.289747816
1.289773081
1.28981063
1.289778277
1.289734708
1.289738671
1.28978052
1.289787436
1.289773177
1.28977099
1.289802512
1.29388443
1.281803523
1.289749557
1.289811192
1.289809889
1.28976242
1.289769618
1.289806615
1.289804171
1.289759067
1.289747048
1.289776386
1.289781453
1.289748536
1.289728211
1.289759589
1.289785333
1.289778725
1.289759968
1.289766545
1.293298804
1.281883526
1.289746855
1.289782002
1.289781456
1.28977996
1.289757282
1.289777285
1.289792445
1.289766402
1.289721015
1.289742548
1.289783847
1.289779792
1.289734944
1.289741246
1.289779987
1.289787186
1.289759239
1.289744956
1.291862239
1.286968893
1.289318661
1.289742695
1.289116759
1.289754653
1.289045388
1.289692206
1.289202068
1.289722722
1.289371192
1.289723798
1.289628485
1.289812472
1.289689659
1.289787111
1.289757265
1.289837523
1.289748776
1.289759118
1.291269982
1.316030249
1.249912154
1.307085103
1.243453971
1.297283387
1.242502329
1.291467044
1.24722671
1.291058767
1.256089326
1.295080698
1.266681745
1.300698337
1.276150553
1.305010036
1.281860117
1.305969807
1.282613892
1.303391708
1.27960287
1.256133621
1.289316418
1.289834895
1.289810905
1.289857087
1.289922058
1.289974044
1.289987149
1.289951762
1.289873732
1.289883053
1.289958597
1.289990905
1.289923956
1.289855579
1.28985355
1.289897088
1.289886786
1.28997687
1.302695096
1.256128913
1.289307525
1.289841152
1.289839782
1.289882161
1.289920798
1.28997821
1.290003292
1.289992393
1.289949445
1.289948678
1.28998133
1.290000167
1.289956988
1.289909367
1.289898887
1.289916665
1.289890693
1.289980403
1.302753122
1.256432957
1.28927363
1.289830689
1.289861904
1.289906587
1.289925437
1.289964955
1.289985135
1.290001484
1.289998298
1.289986184
1.289963558
1.289963988
1.289957374
1.289940414
1.289915446
1.289902806
1.289869289
1.289960469
1.303092348
1.256376232
1.289260414
1.289831933
1.289891362
1.289946954
1.289963399
1.289970035
1.289968225
1.289993663
1.290023099
1.290003733
1.28992805
1.289916792
1.289946197
1.289956283
1.289916157
1.289885779
1.28985677
1.289957375
1.303203517
1.257149029
1.28929653
1.289836625
1.289900036
1.289956373
1.289983635
1.289977852
1.28995945
1.289974025
1.290014125
1.29000833
1.289908965
1.28988476
1.2899253
1.289951559
1.289905762
1.289871259
1.289858338
1.289971118
1.30379728
1.257240438
1.289329765
1.289830516
1.289882328
1.289933083
1.289978477
1.289986234
1.289959126
1.289947933
1.289974314
1.2899935
1.28992479
1.289884844
1.289901994
1.289928631
1.289893137
1.289865033
1.289862807
1.289979428
1.303804728
1.258641089
1.28937496
1.289814107
1.28985823
1.289908052
1.289959583
1.289998639
1.289966182
1.289923418
1.289922704
1.289968509
1.289944961
1.289897262
1.289882735
1.289906107
1.289886092
1.289864193
1.289859707
1.289965115
1.304320139
1.258920384
1.289399215
1.289805293
1.289853125
1.289905426
1.289943443
1.28999548
1.289961917
1.289903218
1.289881554
1.289926503
1.289929658
1.289893393
1.289868185
1.289889196
1.289883119
1.289861978
1.289843574
1.289925447
1.304005799
1.261120499
1.289474211
1.28982524
1.289869979
1.289924521
1.289937026
1.289953537
1.289933091
1.289908105
1.289876598
1.289882007
1.289878267
1.28987227
1.289858197
1.289873981
1.289870496
1.289849858
1.289823062
1.28988703
1.304151686
1.261626766
1.28953148
1.289861962
1.289889922
1.289944253
1.289935844
1.289879113
1.289882605
1.289929406
1.289906222
1.289851889
1.289821973
1.289841342
1.28985199
1.289852169
1.289839074
1.289828167
1.289812534
1.289873019
1.303336339
1.264674848
1.289596899
1.289876539
1.289885645
1.289943787
1.289934922
1.289819357
1.289831063
1.289937176
1.289925178
1.289840471
1.28977768
1.289810051
1.289839807
1.289823519
1.289794567
1.289805278
1.289816655
1.289880053
1.303026932
1.26517821
1.289584951
1.289863314
1.289859988
1.289910833
1.289919795
1.289811177
1.289805821
1.289890282
1.289904772
1.289836059
1.289757294
1.289775284
1.28981193
1.28979445
1.289761679
1.289790053
1.289827258
1.289894889
1.301740761
1.269160794
1.28959742
1.289846471
1.289840081
1.28985488
1.289888039
1.28985845
1.289811647
1.289800969
1.289843158
1.289838483
1.289760832
1.289745064
1.289769831
1.289777772
1.289759431
1.289784857
1.289819185
1.289884743
1.301041985
1.269629057
1.289583999
1.289840169
1.289842805
1.289800247
1.28983777
1.289891858
1.289831556
1.289724127
1.289776564
1.289836129
1.289773114
1.289723937
1.289728707
1.28977295
1.289779535
1.289782983
1.289791419
1.289842713
1.299347595
1.274490926
1.289649933
1.289837936
1.289865117
1.289772537
1.289786499
1.289872711
1.289847782
1.289713176
1.289732617
1.289808242
1.289780248
1.289718719
1.289706071
1.289770595
1.289796469
1.289778726
1.289757641
1.289785377
1.298348522
1.274825348
1.289699435
1.289827706
1.289865812
1.289777255
1.289750155
1.289813496
1.289846111
1.289757309
1.289712796
1.289748925
1.289771724
1.289736018
1.289712495
1.289751567
1.289781389
1.289767194
1.289743747
1.289760766
1.296456265
1.280437852
1.289772391
1.289800685
1.289834952
1.289807951
1.289755451
1.289755207
1.289832211
1.289813195
1.289704592
1.289675184
1.289751699
1.289786997
1.289745556
1.289721781
1.289737652
1.289753716
1.289757427
1.28977825
1.295308007
1.280367849
1.289774956
1.289757109
1.28976808
1.289829188
1.289768557
1.289725571
1.289798322
1.28982691
1.289696836
1.289621874
1.289733576
1.289838483
1.289779603
1.289697141
1.289695324
1.289745123
1.289786666
1.289816015
1.293343827
1.286581699
1.289218609
1.289714887
1.288883777
1.289767872
1.28891756
1.289672304
1.289105321
1.289762583
1.289352284
1.289634926
1.289600577
1.28985819
1.289781157
1.289760686
1.28972419
1.289804601
1.289822587
1.289842975
1.292173267
1.319647823
1.244001761
1.308931595
1.236462371
1.297138257
1.235986851
1.290143501
1.242904681
1.28976409
1.254815855
1.294660995
1.268551477
1.301303395
1.280542825
1.306223535
1.287535483
1.306645846
1.287794079
1.302396191
1.283299057
1.242592714
1.289129938
1.28984033
1.289790076
1.289863407
1.289995946
1.28998532
1.289965967
1.289946427
1.289892388
1.289802716
1.289775514
1.289871678
1.289925435
1.289840212
1.289712171
1.289739245
1.289805304
1.29000998
1.310962565
1.24244989
1.289057676
1.289839917
1.28981805
1.289905354
1.289976533
1.289955222
1.289976447
1.289986932
1.28993526
1.289875699
1.289852621
1.28989647
1.289911062
1.289856191
1.289780251
1.289801867
1.289828878
1.290003355
1.311204072
1.242685251
1.288955272
1.289831185
1.289854509
1.289933864
1.289959949
1.289939595
1.28996648
1.289974931
1.289939855
1.289924996
1.28989365
1.28987552
1.289849301
1.289841021
1.289825025
1.289835613
1.289820657
1.289965262
1.31182173
1.242354866
1.288900086
1.289847312
1.289915707
1.289959214
1.289972218
1.289981975
1.289968683
1.289932961
1.289920481
1.289954268
1.289917743
1.289844066
1.289789687
1.289820214
1.289847777
1.289842442
1.289807335
1.289944498
1.312403749
1.243128267
1.288957171
1.289873041
1.28995509
1.289955747
1.289960432
1.290019364
1.289983648
1.289889572
1.289879904
1.289958018
1.28993068
1.289829737
1.289750282
1.289803915
1.289849004
1.289829534
1.289793747
1.289942335
1.313409042
1.243011376
1.289037621
1.289868656
1.28994868
1.289928634
1.289929451
1.290037615
1.290010763
1.289871563
1.289836288
1.289930736
1.289946637
1.289849206
1.289745187
1.289796027
1.289843115
1.289811546
1.289780892
1.289937655
1.31394024
1.244697975
1.289132288
1.28983433
1.289907152
1.289902724
1.289906078
1.290038116
1.290039722
1.289885112
1.28979185
1.289962446
1.289968392
1.289881985
1.289759127
1.289795296
1.289839578
1.28980035
1.289765887
1.289913163
1.314680496
1.244954222
1.289172373
1.289797203
1.289869748
1.28990214
1.289905465
1.29000933
1.290028333
1.289906153
1.289761411
1.290356089
1.289940269
1.289876731
1.289766031
1.289793209
1.289838838
1.289793666
1.289747477
1.289872807
1.314595922
1.247789054
1.289250251
1.289803669
1.289873312
1.289935711
1.289935135
1.289947536
1.289962581
1.289921037
1.289801924
1.289811904
1.28983726
1.289833559
1.289762145
1.289789098
1.289823214
1.289776897
1.289732482
1.28984226
1.314567975
1.248614888
1.289283079
1.289861856
1.289898112
1.289965182
1.289971664
1.289871374
1.289865965
1.289910053
1.28988369
1.289805217
1.28977216
1.28978192
1.289759701
1.289780871
1.289785683
1.289748844
1.289728373
1.289841066
1.313524829
1.252748516
1.289361833
1.289909847
1.289907106
1.289949514
1.28998192
1.289835571
1.289790969
1.289853937
1.289907947
1.289848852
1.28974396
1.289735175
1.289751587
1.289763344
1.289738092
1.289721499
1.289735096
1.289852922
1.312580882
1.253756752
1.289367814
1.289909208
1.289886057
1.289879848
1.289941993
1.289870146
1.28978545
1.289771833
1.289866999
1.289875614
1.289746122
1.289696016
1.289721306
1.289738868
1.289709022
1.289715247
1.289748749
1.289863173
1.310566072
1.259352786
1.289449832
1.289881296
1.289876696
1.289789753
1.289863602
1.289954875
1.289849235
1.289696732
1.289770191
1.289864824
1.289785136
1.28968025
1.289665985
1.289712812
1.289713855
1.289732671
1.289751038
1.289831958
1.308909895
1.26052159
1.289482836
1.289847067
1.289890288
1.289763457
1.289774568
1.289960607
1.289915124
1.289667519
1.289675918
1.289826003
1.289821369
1.289683685
1.289615917
1.289694419
1.289747346
1.28975911
1.289738279
1.289782136
1.306208374
1.267341934
1.289623884
1.289813338
1.289921533
1.28982482
1.28971736
1.289854844
1.289921968
1.28971774
1.289644077
1.289743228
1.28981163
1.289713524
1.289622674
1.289692578
1.289768
1.289767758
1.289724262
1.289735215
1.304114616
1.268332866
1.289708512
1.289780325
1.289892299
1.289902212
1.289730604
1.289706095
1.289858421
1.289827344
1.289687251
1.289644142
1.289739442
1.289759215
1.289699241
1.289702203
1.289738754
1.289748582
1.28972806
1.289743185
1.30118855
1.276181799
1.289817318
1.289747598
1.289810125
1.289930677
1.289803199
1.289626853
1.289776455
1.289924001
1.289769355
1.289560957
1.289632158
1.289802646
1.289820824
1.289716191
1.289666269
1.289704385
1.289752032
1.289793202
1.298919409
1.276456965
1.289793676
1.289708299
1.289700413
1.28988732
1.28985351
1.289647639
1.289707507
1.289946431
1.289831695
1.289521001
1.289544703
1.289825678
1.289909296
1.289724502
1.289604978
1.289660795
1.289781917
1.289861321
1.295970984
1.285098212
1.289017495
1.289666485
1.288408131
1.289684381
1.288621301
1.289574905
1.288723128
1.28979099
1.289355912
1.289553447
1.289371248
1.289824571
1.289916371
1.289815422
1.289680181
1.289728943
1.289817032
1.289867575
1.293685683
1.321438711
1.2357937
1.305776595
1.224441177
1.288230897
1.222790138
1.278447136
1.231618275
1.280543055
1.247513068
1.291225598
1.26574632
1.30371731
1.281393494
1.313335137
1.28987896
1.315722113
1.288446783
1.309758068
1.280593916
1.230405303
1.288852451
1.289817084
1.28988979
1.289836652
1.289968985
1.289984939
1.289947714
1.289954398
1.289961374
1.289759141
1.289621899
1.289750481
1.289894475
1.289842203
1.289609113
1.289538485
1.28962963
1.290017369
1.324207555
1.230103256
1.288749052
1.289843023
1.289882148
1.289931482
1.290025964
1.289953547
1.28994032
1.28992119
1.289908743
1.28979869
1.289687027
1.289739368
1.289814318
1.289800644
1.289684184
1.289663565
1.289707171
1.290029415
1.324599285
1.230159887
1.288624183
1.289847874
1.289866451
1.289967883
1.29003224
1.289918712
1.289917125
1.289866582
1.289827541
1.289843056
1.289758002
1.289696207
1.289671613
1.289705084
1.289734372
1.289760944
1.289755159
1.289993953
1.325869544
1.229451732
1.288562162
1.289857144
1.289886856
1.289951829
1.289996227
1.289965651
1.289996461
1.289869143
1.289752228
1.289876362
1.289885283
1.289691626
1.289537548
1.289605462
1.289752677
1.289812754
1.289771862
1.289949255
1.326830293
1.230098556
1.288649418
1.289878099
1.289934479
1.28994033
1.289943845
1.290012523
1.290064008
1.289907279
1.289698095
1.289847281
1.289982845
1.289757933
1.289505056
1.28954998
1.289737007
1.289805568
1.289756834
1.289905425
1.328800672
1.229727351
1.288760592
1.28988375
1.289972746
1.289937914
1.28990104
1.290048423
1.290097925
1.289942552
1.289690483
1.289921289
1.28995223
1.289869645
1.289605908
1.289569981
1.289702035
1.289758376
1.289724895
1.289868039
1.329575227
1.231513636
1.288901496
1.289860571
1.289961221
1.289933976
1.289880232
1.290025155
1.290103736
1.289985973
1.289841489
1.297493101
1.289935639
1.2899267
1.289698953
1.289607467
1.289682448
1.28972108
1.289696928
1.289828087
1.331124219
1.231750936
1.288926066
1.289816947
1.289919482
1.289935269
1.289901233
1.289959022
1.290056681
1.28998796
1.290555357
1.316437809
1.290208125
1.289824572
1.28969812
1.289617586
1.289672365
1.289703717
1.289683099
1.289797627
1.330883582
1.235050003
1.288952134
1.289803604
1.28989613
1.2899572
1.289968314
1.289916873
1.289972885
1.289954971
1.289817763
1.29284518
1.289705343
1.289729442
1.289643888
1.289618797
1.289668653
1.289696257
1.289677287
1.289777383
1.330990759
1.236073936
1.288874365
1.289857338
1.289908279
1.289959006
1.290027059
1.289940084
1.289893426
1.289856654
1.289770936
1.289778198
1.289700854
1.289684096
1.289624364
1.289625555
1.289668198
1.289686248
1.289672979
1.289774218
1.329204627
1.24120017
1.288992467
1.289941428
1.28994032
1.289906383
1.290004281
1.289996789
1.28987464
1.289746336
1.289758684
1.289786298
1.289755709
1.289694515
1.289616682
1.289618123
1.289659177
1.289676304
1.289667483
1.28976908
1.327576666
1.242612474
1.289071961
1.289977474
1.28996135
1.289806891
1.289889604
1.290031164
1.289925191
1.289685983
1.28971124
1.289822559
1.289850041
1.289714203
1.289580174
1.289585159
1.289649269
1.289676548
1.289667533
1.289763848
1.32431037
1.250013336
1.289332345
1.289930193
1.289968534
1.289722781
1.289751076
1.290031117
1.289996916
1.289680444
1.289612356
1.289775382
1.289881902
1.289719156
1.289543255
1.289561714
1.289652288
1.289694251
1.289668972
1.289737412
1.321255386
1.251542016
1.289443301
1.289832582
1.289944055
1.289779139
1.28967985
1.289927054
1.290001396
1.289729258
1.289566091
1.289651041
1.289795158
1.289706548
1.289560597
1.289580983
1.289680121
1.289719658
1.289672982
1.289716515
1.317007615
1.260696664
1.289650488
1.289733287
1.289909418
1.289973847
1.289733961
1.289731776
1.28990982
1.289834007
1.289629266
1.289562952
1.289671131
1.289704861
1.28962387
1.28963567
1.289710584
1.289731055
1.289681656
1.289708451
1.313097211
1.261820186
1.289672986
1.289680439
1.289824121
1.29009777
1.289847304
1.289581376
1.289745487
1.289918633
1.289790989
1.2895703
1.289570989
1.289695165
1.289719472
1.289706027
1.28971195
1.28971535
1.289697307
1.289742623
1.308614889
1.272277246
1.289782375
1.289701478
1.289731369
1.290019828
1.289948726
1.289607863
1.289618572
1.289921342
1.289941295
1.289638017
1.289515655
1.289675848
1.289816973
1.289769914
1.289678052
1.289670244
1.289714406
1.289785188
1.304454253
1.272320382
1.289720974
1.289754866
1.289691114
1.289828512
1.289896161
1.289741474
1.289602969
1.28984272
1.28996671
1.289717337
1.289512368
1.289651762
1.28986668
1.289795756
1.289628452
1.289619424
1.289732008
1.289831897
1.300063717
1.283935027
1.288543265
1.289734297
1.287831097
1.28951801
1.287922592
1.289688167
1.288361355
1.2896011
1.289347694
1.289756369
1.289461025
1.289711779
1.28995719
1.289909147
1.289816625
1.289715503
1.289830532
1.289832622
1.295939493
1.328504218
1.222558168
1.308559376
1.207904527
1.285775991
1.207098026
1.272900764
1.221224774
1.275351699
1.244394112
1.288727784
1.270061953
1.304876179
1.292185288
1.317357754
1.304401957
1.318845222
1.301457106
1.308182631
1.289405435
1.205009326
1.287653785
1.289670709
1.290116357
1.289842956
1.289545374
1.2899941
1.290243085
1.289749588
1.2894924
1.289827173
1.289968764
1.289600993
1.289333522
1.289590174
1.28976223
1.289607024
1.289507691
1.289905274
1.346698306
1.204228249
1.287623259
1.289858636
1.290071009
1.28998912
1.28996127
1.290003492
1.290012784
1.289839349
1.28972175
1.289739925
1.289777313
1.289663534
1.289480031
1.289551135
1.289672399
1.289637434
1.28960641
1.289954593
1.347847764
1.203891786
1.287599614
1.289943255
1.289946364
1.290015388
1.290209434
1.289960603
1.289824128
1.289883992
1.289855311
1.289591001
1.289557544
1.289701804
1.289595161
1.289480593
1.289551709
1.289639602
1.289682659
1.289942904
1.350424189
1.202263797
1.28759362
1.289893006
1.289789086
1.289932914
1.290168769
1.28992858
1.289793895
1.289931466
1.2899147
1.289510444
1.289404568
1.289692045
1.289696773
1.289487912
1.289477068
1.289642673
1.289726747
1.289893149
1.353309886
1.202375447
1.287732133
1.289805246
1.289725938
1.289902337
1.29009214
1.289852509
1.289796993
1.29000981
1.290000451
1.289963543
1.289399977
1.289675097
1.289769645
1.289516691
1.289423287
1.289623671
1.289734587
1.289804048
1.357168094
1.201211527
1.287794209
1.289779502
1.289811918
1.289993662
1.290105428
1.289789288
1.289776002
1.290119579
1.290352714
1.299513084
1.289418549
1.289626116
1.289837884
1.289558366
1.289371723
1.289571594
1.289713895
1.289712504
1.360049734
1.203001462
1.287904391
1.289805001
1.289929957
1.290059159
1.290130093
1.289727836
1.28969946
1.290402031
1.298022233
1.440908574
1.292711977
1.289598404
1.289909761
1.289592888
1.289340557
1.289521751
1.289690413
1.28963428
1.362792296
1.202950486
1.287848231
1.289820177
1.289965636
1.290080597
1.29018645
1.289718019
1.289607682
1.290841308
1.313170232
1.516756866
1.306033881
1.289841244
1.289885614
1.289592348
1.289324801
1.289496567
1.28968172
1.289587383
1.363555207
1.207071615
1.287847485
1.289793185
1.289930816
1.290065979
1.290237612
1.289811795
1.289639778
1.290112419
1.29400678
1.368820157
1.291673505
1.289448316
1.289750695
1.289575023
1.289337947
1.289506268
1.289681461
1.28956228
1.363297967
1.208608286
1.287720809
1.289773105
1.289910626
1.289994739
1.290204695
1.289965634
1.289792427
1.289834472
1.289967188
1.295185173
1.289524771
1.289430469
1.289638094
1.2895675
1.289396491
1.289541785
1.289678452
1.289556128
1.360682632
1.215842341
1.288054309
1.28984512
1.289947487
1.28988673
1.290063407
1.290095609
1.289921585
1.289697664
1.289721115
1.289942661
1.289621168
1.289507228
1.289577238
1.289554816
1.289474553
1.289581055
1.289665422
1.28955699
1.357008195
1.218440555
1.288395569
1.289935555
1.29001787
1.289790779
1.289855657
1.290109975
1.290034038
1.289727396
1.289655359
1.289645101
1.289635011
1.289627606
1.289572305
1.289522071
1.289522395
1.289606772
1.289646692
1.289566083
1.351160215
1.229437734
1.289032433
1.28991546
1.290029785
1.289761353
1.289698321
1.289994694
1.290112089
1.28988915
1.289613075
1.289431764
1.289606956
1.289801433
1.289665998
1.289486439
1.289526525
1.289620117
1.289630056
1.289578879
1.344855013
1.232596652
1.289251184
1.289819607
1.28992983
1.289849846
1.289708841
1.289804868
1.290056257
1.290084679
1.289625437
1.289252175
1.289615569
1.289987969
1.289749805
1.289428977
1.289514031
1.28963338
1.289626664
1.28961751
1.337073771
1.245868215
1.289499847
1.289725025
1.289770215
1.290047223
1.289888686
1.289602217
1.289858055
1.290169074
1.289693818
1.28925206
1.289617677
1.289978543
1.289742042
1.289452051
1.289557392
1.289660395
1.289635219
1.289658482
1.329611473
1.248239758
1.289290035
1.289658676
1.28964578
1.290132125
1.29003527
1.289553608
1.289617004
1.28995102
1.289753539
1.289511713
1.289647162
1.289750622
1.289631479
1.289569644
1.289661569
1.28969091
1.289645545
1.289710426
1.321776369
1.263410823
1.289397856
1.289716229
1.289699643
1.289972037
1.290010721
1.289779832
1.289517478
1.289566024
1.289851485
1.289939834
1.289679931
1.289409491
1.289529969
1.289771869
1.289796039
1.289700586
1.289638524
1.289724961
1.314210782
1.264029907
1.289386773
1.2898944
1.289935957
1.289691982
1.289707966
1.290067096
1.289609807
1.289243825
1.289888761
1.290350405
1.289737197
1.289160009
1.289492322
1.289947003
1.289889091
1.289674562
1.289618598
1.289725007
1.307049596
1.281130323
1.287705614
1.289877057
1.287051791
1.289164013
1.286170597
1.289488994
1.287576554
1.288764964
1.288976329
1.290347453
1.289625799
1.289341337
1.289738427
1.290117673
1.29015432
1.289698286
1.289751335
1.289665298
1.299731464
1.332352121
1.20597787
1.302813705
1.183663132
1.267648029
1.180809315
1.247322489
1.200151404
1.255505994
1.232806958
1.280902656
1.267771449
1.309644887
1.298085037
1.333451818
1.314134962
1.340236509
1.306054784
1.324560828
1.285393948
1.180825114
1.286116194
1.289396787
1.290048276
1.290264246
1.289361298
1.289555641
1.290143262
1.289900727
1.289618058
1.289719907
1.289715727
1.289358619
1.289161279
1.289481756
1.289785042
1.289723702
1.289539046
1.289711874
1.375215335
1.179087988
1.286157984
1.289867017
1.29021369
1.290080186
1.289894558
1.289906694
1.290093304
1.289851974
1.289609559
1.289675616
1.289702701
1.289422382
1.28923047
1.289323782
1.289544743
1.2896152
1.289588534
1.289790996
1.377322914
1.178185336
1.286272647
1.290086969
1.290123745
1.289864544
1.290260854
1.290275011
1.290064288
1.289772645
1.289514344