/*--------------------------------*- C++ -*----------------------------------*\
| =========                 |                                                 |
| \\      /  F ield         | OpenFOAM: The Open Source CFD Toolbox           |
|  \\    /   O peration     | Version:  5.x                                   |
|   \\  /    A nd           | Web:      www.OpenFOAM.org                      |
|    \\/     M anipulation  |                                                 |
\*---------------------------------------------------------------------------*/
FoamFile
{
    version     2.0;
    format      ascii;
    class       volVectorField;
    location    "8";
    object      U;
}
// * * * * * * * * * * * * * * * * * * * * * * * * * * * * * * * * * * * * * //

dimensions      [0 1 -1 0 0 0 0];

internalField   nonuniform List<vector> 
30538
(
(0.09321824396 0.001795845364 -0.004300329493)
(0.1002527048 -0.004027837284 0.009824464202)
(0.06655118278 -0.003068216631 -0.004255752531)
(0.05912397756 -0.006026690925 0.002911319964)
(0.01883241307 -0.004844207075 -0.003279447367)
(0.01655775164 -0.007951805737 0.001666340843)
(-0.02915439377 -0.00340916827 -0.003780998605)
(-0.02859670171 -0.002617361292 -0.00164364283)
(-0.06411971064 0.001925285909 -0.003894784448)
(-0.04910517377 0.0008051393519 -0.006560340436)
(-0.07269821846 0.001930494566 -0.009737243802)
(-0.05399570607 0.001264307745 -0.007617675464)
(-0.06537921185 0.005981926173 -0.003253498268)
(-0.02493702297 0.007130320312 -0.00234451629)
(-0.01831969535 0.007869035796 -0.0069853636)
(0.0100858352 0.004307231287 -0.01089585236)
(-0.0001629636006 0.004218482913 -0.009790976885)
(0.00884168051 0.003318157645 -0.003543237959)
(0.009339832721 0.004415293916 -0.0001433585398)
(0.02433429145 0.00189779117 0.001636979489)
(0.09167849268 0.003189511166 -0.005304250221)
(0.09687479132 -0.009716123229 0.008339470084)
(0.06505192259 -0.0108610669 -0.003719704793)
(0.05791600608 -0.01670567215 0.003669839787)
(0.01741223787 -0.01441066864 -0.002637033374)
(0.01756833574 -0.018872369 0.001762268279)
(-0.02543176739 -0.01277233029 -0.004242789668)
(-0.02477458809 -0.009244283516 -0.002589009483)
(-0.06172854887 -0.001443426675 -0.004751454902)
(-0.04903103696 0.0001739056811 -0.006467526072)
(-0.07241934976 0.0007338195568 -0.00858364799)
(-0.05112935433 0.004120840002 -0.007087996857)
(-0.06126770029 0.01329089314 -0.004583597435)
(-0.02361431538 0.01944561301 -0.004185280409)
(-0.02025224666 0.01908961676 -0.007354142792)
(0.007416705447 0.01261735035 -0.009605149708)
(-0.0007482013356 0.01110937611 -0.008635267525)
(0.009013306226 0.01089530332 -0.003826744497)
(0.008290578908 0.01259150522 -0.00147105075)
(0.01979467936 0.006166415653 0.0005626646175)
(0.08876726776 0.003849359188 -0.007047190773)
(0.09038692719 -0.01404857646 0.006392162125)
(0.06158037695 -0.01481162449 -0.003491732798)
(0.05662363304 -0.02592357533 0.004633743789)
(0.01724816273 -0.01678139475 -0.00278244206)
(0.01770056241 -0.02356149549 0.001588886984)
(-0.02239959845 -0.01547671174 -0.004667622194)
(-0.02056048552 -0.01628182922 -0.003520689298)
(-0.05754586733 -0.003707919446 -0.006292004612)
(-0.04744442125 -0.003370809514 -0.006369449944)
(-0.06997238317 0.003075770897 -0.007807327396)
(-0.04509784831 0.007536232833 -0.006847373291)
(-0.05462245837 0.02255618737 -0.007421043071)
(-0.02086354623 0.02783828711 -0.007177156436)
(-0.02307366504 0.02940942942 -0.008343977547)
(0.00435527517 0.01948374385 -0.007983313356)
(-0.001241663777 0.01975727673 -0.007653194948)
(0.009882791491 0.01855419034 -0.004652832634)
(0.006041901836 0.02220951217 -0.003817940242)
(0.01074255184 0.009049273893 -0.0009936406794)
(0.08465047309 0.001265786786 -0.007532377856)
(0.0836090817 -0.01810143142 0.004985620222)
(0.05694590556 -0.01943959396 -0.002601372768)
(0.05640452846 -0.03485947115 0.005575954229)
(0.01918643898 -0.02338358313 -0.002602412366)
(0.01843088416 -0.02992471948 0.001295996876)
(-0.02034809838 -0.02130790117 -0.003791475835)
(-0.01643019101 -0.02237328003 -0.003347569662)
(-0.052736797 -0.009790031446 -0.006444540538)
(-0.04412623651 -0.005764742056 -0.005346584096)
(-0.06478786952 0.0037849989 -0.00627592823)
(-0.03738619499 0.01230631036 -0.006423333054)
(-0.04696366231 0.02625694326 -0.009696024081)
(-0.0187959007 0.03172417117 -0.009907664857)
(-0.02617263969 0.03364240888 -0.008602686678)
(0.0006077653046 0.02516076179 -0.00637248789)
(-0.00141483961 0.02559306957 -0.006633570088)
(0.01075671422 0.02360080317 -0.00615501591)
(0.001773977049 0.0257640085 -0.006594656716)
(-0.002804385026 0.009560838428 -0.002718874707)
(0.07701289105 -0.0004740899059 -0.00746838787)
(0.07560281255 -0.02280689847 0.005131301733)
(0.05007115564 -0.019757507 -0.002615650797)
(0.05368466836 -0.04102942333 0.006394619044)
(0.02087175828 -0.02748785556 -0.003086849034)
(0.01909246892 -0.03777810474 0.0008053260718)
(-0.01710473023 -0.02241642902 -0.003753173317)
(-0.01235680852 -0.02659269902 -0.003386638853)
(-0.045935775 -0.009783529556 -0.007456162378)
(-0.03776436728 -0.006451735066 -0.005687979449)
(-0.0573162074 0.01109592363 -0.00730775682)
(-0.02924358253 0.01679598404 -0.007090558231)
(-0.04096075715 0.03060598396 -0.01224376536)
(-0.01566751009 0.03075232109 -0.01157379489)
(-0.02777339941 0.0387860808 -0.00919647092)
(-0.001264717637 0.03114628456 -0.005413798544)
(-0.002427356271 0.03316161448 -0.006661597565)
(0.01001305007 0.02346453901 -0.007477551637)
(-0.003600631777 0.02254040365 -0.008599988038)
(-0.01480511395 0.004253155487 -0.003642916388)
(0.0682184275 -0.000924838579 -0.005647788962)
(0.06992861666 -0.02722665773 0.005999802068)
(0.04429233503 -0.01976998334 -0.00202323277)
(0.05080063304 -0.04376021364 0.006601281544)
(0.02156580582 -0.03129778011 -0.002187478881)
(0.02193636196 -0.04500013306 0.0009403163024)
(-0.01249518805 -0.02458926929 -0.002652168089)
(-0.007393911893 -0.02990355886 -0.002373729367)
(-0.03864053541 -0.01121486265 -0.006671833056)
(-0.02925222407 -0.007296601616 -0.005404140532)
(-0.04846535245 0.01360357057 -0.008525131208)
(-0.02363614963 0.01786371402 -0.007555597703)
(-0.0371222339 0.02915494963 -0.01212823655)
(-0.0130774866 0.02710406491 -0.01095158877)
(-0.02590955938 0.04031026184 -0.008465699764)
(-0.003333844924 0.03670239706 -0.005224046417)
(-0.006868182168 0.03748421146 -0.006782575153)
(0.003227448145 0.0198578208 -0.007786387402)
(-0.01157240849 0.01307863905 -0.008483307716)
(-0.02235862606 -0.003101802641 -0.003292245089)
(0.05701065705 0.003060914184 -0.004961777528)
(0.06226854404 -0.02884189572 0.007227908424)
(0.03864677407 -0.01499227964 -0.003228362664)
(0.04536378119 -0.04179661985 0.005947632752)
(0.02007018348 -0.02759670394 -0.002619004618)
(0.02378434071 -0.04730003241 0.0008958481543)
(-0.006480438959 -0.02187333816 -0.003609739026)
(-0.002786315059 -0.03143997224 -0.002588194072)
(-0.03007534929 -0.008162051746 -0.007221601703)
(-0.02011755424 -0.008697105938 -0.006577339383)
(-0.03961752797 0.01514234754 -0.01161614012)
(-0.01828287526 0.01417110887 -0.008546213866)
(-0.03443475883 0.02847575364 -0.01221288994)
(-0.007875502477 0.02361777479 -0.009518187254)
(-0.02096736218 0.04254781312 -0.008856524513)
(-0.003295610391 0.0387312235 -0.006338086169)
(-0.01428323024 0.04022353565 -0.008022643089)
(-0.00728654467 0.01522050702 -0.007259190923)
(-0.01970855944 0.006015702421 -0.006742387911)
(-0.02239867427 -0.008986188037 -0.001836370336)
(0.04982557913 0.008869580763 -0.003919121796)
(0.05716814437 -0.02775330978 0.006906144707)
(0.03549862204 -0.01112687089 -0.003509528568)
(0.04170433715 -0.04097531596 0.00468566281)
(0.01784156221 -0.02415379263 -0.00170872338)
(0.02591605769 -0.04843727625 0.001673408992)
(-0.001332649488 -0.02303223684 -0.003253878672)
(0.002427441606 -0.03511207775 -0.00202170493)
(-0.022706419 -0.007466821778 -0.005841891857)
(-0.01267301208 -0.01286005213 -0.006052493479)
(-0.03235234631 0.01201369028 -0.01296440688)
(-0.01428167897 0.006340969246 -0.008465295578)
(-0.03043250478 0.02580896983 -0.01030322344)
(-0.00322796532 0.02021770713 -0.007552007488)
(-0.01522058163 0.03935457123 -0.008371617351)
(-0.005006837453 0.03360525527 -0.007734306974)
(-0.0234952662 0.0366531063 -0.008613897855)
(-0.02097780332 0.01226517651 -0.006056814412)
(-0.02857622579 0.00529619775 -0.003926435879)
(-0.02075925404 -0.009014079113 -0.0001090064255)
(0.04347164736 0.01387381683 -0.004695077817)
(0.04825022631 -0.02511939825 0.006180370856)
(0.02963756452 -0.007523106914 -0.004510128777)
(0.03596116255 -0.04084940465 0.003975158591)
(0.01499707072 -0.0187310781 -0.002158617537)
(0.02449644577 -0.04618917378 0.002125645202)
(0.002895025057 -0.02154581196 -0.0042872396)
(0.008383607286 -0.03708200834 -0.002842458287)
(-0.01450165287 -0.004334164419 -0.006558100913)
(-0.006249100906 -0.01712056904 -0.006140758442)
(-0.0260906231 0.00974675715 -0.01313136505)
(-0.008645810797 -0.0002525890488 -0.00874503607)
(-0.02460733635 0.0269992159 -0.01052485714)
(0.001623738144 0.01798752808 -0.006847636534)
(-0.01151770774 0.0342842936 -0.009269771549)
(-0.005184978964 0.02211054212 -0.009216585634)
(-0.02943429997 0.03048414362 -0.009883017557)
(-0.02948241483 0.01198313739 -0.005442786447)
(-0.03463737117 0.01322898589 -0.002300379624)
(-0.02021261452 -0.003635527435 0.001217428113)
(0.04166510805 0.01498020271 -0.004496113199)
(0.04228748384 -0.02765899548 0.00472693667)
(0.02472563342 -0.007492230246 -0.002657529403)
(0.03357538222 -0.0444922834 0.00428985006)
(0.01426124203 -0.01709382809 -0.0007319922566)
(0.02385123653 -0.04642573689 0.003339168662)
(0.005047942585 -0.02091499345 -0.002909325534)
(0.01479635706 -0.04102347303 -0.00240775898)
(-0.008751091163 -0.007033744891 -0.005079596056)
(-0.002603514864 -0.02554200614 -0.004077048532)
(-0.02050305338 0.002427700619 -0.009776868285)
(-0.002189309228 -0.008155911839 -0.007928579921)
(-0.01753036193 0.02382639981 -0.009688091176)
(0.001856891131 0.01253231086 -0.006637432879)
(-0.01228851392 0.02337958835 -0.0082916026)
(-0.007671069487 0.005875559464 -0.00916117501)
(-0.03068198961 0.02015353567 -0.00970105285)
(-0.03323754506 0.01174624809 -0.005507458572)
(-0.03951982435 0.02194110553 -0.002072879472)
(-0.02795624258 0.003405680727 0.001069372811)
(0.0343018468 0.01295947515 -0.005151524815)
(0.03267356969 -0.03211436902 0.004615684643)
(0.01807763991 -0.005974662216 -0.001809358528)
(0.02897382632 -0.04420558287 0.005020797167)
(0.01380044873 -0.01365925555 -0.001556355438)
(0.02175483238 -0.04388791358 0.003102642821)
(0.006628098285 -0.01432727928 -0.003180873918)
(0.01843836323 -0.03945296449 -0.002706313559)
(-0.003738374791 -0.008490683592 -0.006208980821)
(0.000564732366 -0.03014146178 -0.003293111378)
(-0.01387793497 0.0005355147269 -0.008445317649)
(0.006418185908 -0.01315519149 -0.008045909631)
(-0.009977364947 0.02027900603 -0.01185083583)
(0.001235532078 0.004847949284 -0.007844554502)
(-0.0161517382 0.01441090209 -0.008147054219)
(-0.007501213077 -0.007016268228 -0.008183583445)
(-0.02524820425 0.01155779838 -0.009643269798)
(-0.02821106646 0.00803824355 -0.006548004172)
(-0.04042374188 0.02501532452 -0.004059921074)
(-0.03857400585 0.005696842566 -0.0001208515024)
(0.02792675142 0.01199025721 -0.003926725522)
(0.02918347376 -0.03675357882 0.004758398363)
(0.01652485404 -0.001165281979 0.0001300578377)
(0.02793065487 -0.04275997204 0.005409184345)
(0.01468411865 -0.01127026733 -0.0007853375329)
(0.02331845585 -0.04564707013 0.002816652173)
(0.008057783192 -0.009724509457 -0.0008543861836)
(0.01916518058 -0.04120923711 -0.001142119576)
(-0.002371706718 -0.01362613891 -0.004003631151)
(0.003896831014 -0.0368914096 -0.001581514712)
(-0.008571171418 -0.002500406123 -0.004625967181)
(0.01168886977 -0.02194031777 -0.006752506084)
(-0.004764170203 0.007940118193 -0.01125759002)
(-0.002379582466 -0.01012864131 -0.008350150736)
(-0.02058916576 0.005845576834 -0.006164403803)
(-0.009741129614 -0.01415803451 -0.0058298171)
(-0.02001178851 0.003197725678 -0.007797748361)
(-0.02365656406 -0.003144631702 -0.007128251619)
(-0.04106318059 0.01587626735 -0.005829874525)
(-0.05006650863 0.0005820357686 -0.001908662469)
(0.01659587974 0.01383647576 -0.003737460124)
(0.023611203 -0.03441567148 0.005481865942)
(0.01418879764 0.007706392784 -0.0007702152613)
(0.02157893406 -0.0350460899 0.004995334452)
(0.0119658697 -0.006039477731 -0.001942200986)
(0.02278930033 -0.04413142747 0.001435725709)
(0.009654123293 -0.004787693212 -0.0008501794411)
(0.01594213234 -0.03986090626 -0.0002186087022)
(-0.000873231392 -0.01331135007 -0.004318658589)
(0.008526264209 -0.03669603723 -0.002181765961)
(-0.0033790944 -0.0007624243193 -0.005469524894)
(0.01370768056 -0.02668960861 -0.006050696074)
(-0.00155912252 -0.004328180181 -0.01132661632)
(-0.0003334883035 -0.02383082635 -0.008532332489)
(-0.01895136562 0.003211904804 -0.006414149056)
(-0.009364934114 -0.01413451184 -0.004646198863)
(-0.01752482784 -0.001054251852 -0.006485389316)
(-0.01918227357 -0.01706244427 -0.00672201626)
(-0.03769089583 0.0003430184165 -0.006848562818)
(-0.0505430219 -0.009085605959 -0.002724670575)
(0.01322081935 0.01932287375 -0.00220273122)
(0.02505564513 -0.03073737002 0.005183216713)
(0.01640243177 0.01455028069 -0.0008028084009)
(0.01796059946 -0.03195637685 0.004480125535)
(0.008475889216 -0.002197905777 0.0001389794444)
(0.02415126483 -0.0459527421 0.001666184928)
(0.0109713761 -0.006368739365 0.001023787434)
(0.01340464405 -0.04433423492 0.001831505366)
(-0.0003224504043 -0.0128825913 -0.001592650437)
(0.01287214854 -0.0394208912 -0.002226647124)
(-0.001562320784 -0.003011154814 -0.004386461564)
(0.009117257807 -0.03351039199 -0.003750241149)
(-0.00269859827 -0.01610817155 -0.006817022119)
(0.002875779966 -0.03651384541 -0.006478234265)
(-0.013717642 -0.001873885687 -0.006125355382)
(-0.01269929091 -0.01606424807 -0.004362517802)
(-0.02220641837 -0.005221535514 -0.00456024506)
(-0.02259675624 -0.0286287608 -0.004788999223)
(-0.03531732464 -0.01367161433 -0.005454009622)
(-0.04423406705 -0.01712998807 -0.002465688531)
(0.008425742593 0.02427048893 -0.002000234518)
(0.02051062909 -0.02466470726 0.004632154009)
(0.01363006013 0.01659879863 -0.002616564549)
(0.009510036758 -0.03017553891 0.003697823153)
(0.002304248758 0.004611787143 0.001214071099)
(0.01978149336 -0.04088292561 0.001535851775)
(0.01068706327 -0.006387854614 -0.0005697948809)
(0.01159593167 -0.04450551576 0.001665096651)
(0.00241975861 -0.00831003964 -0.001803860944)
(0.01560987904 -0.03866886157 -0.003831117037)
(0.0007556613153 -0.005517482215 -0.006896489968)
(0.004432206857 -0.03504193862 -0.0030350417)
(-0.003631800096 -0.0178262008 -0.00362661357)
(0.009630532966 -0.04028794895 -0.004229187333)
(-0.004473926079 -0.009065228618 -0.007351502295)
(-0.0116836769 -0.0221640289 -0.005756942868)
(-0.02647331909 -0.008757884048 -0.004352193045)
(-0.02504840754 -0.03208955877 -0.002623273451)
(-0.02944655554 -0.0165416741 -0.002987425028)
(-0.02916724358 -0.01927294771 -0.001151538284)
(0.0129419264 0.02784229227 -0.0009515870577)
(0.01987677637 -0.02511936383 0.003513396692)
(0.01280160012 0.01346859333 -0.001894491958)
(0.0092302349 -0.03706495092 0.003296792556)
(0.001122704896 0.009881833051 0.003924246741)
(0.01633938999 -0.0390677392 0.002736494405)
(0.008315706648 -0.006427348241 -3.989762727e-05)
(0.0122959732 -0.04775845339 0.002184899628)
(0.003611872555 -0.008079389023 0.000784160859)
(0.0149545723 -0.04451489015 -0.003101571247)
(0.000953293187 -0.01316594125 -0.006285006727)
(0.0003922161156 -0.03965344239 -0.002271878124)
(-0.006364413475 -0.0145588778 0.0007721207748)
(0.008971111865 -0.04093558471 -0.0009692379299)
(-0.0008581952173 -0.01859609592 -0.006096107788)
(-0.01245718005 -0.03379513244 -0.006281154033)
(-0.02925051601 -0.01311314508 -0.003611430455)
(-0.02800731685 -0.0297663653 -0.0006806875702)
(-0.02614089846 -0.009649289361 -0.0002862716054)
(-0.01931714399 -0.01586023973 0.0001660881416)
(0.01039605069 0.02683203638 -0.001240540612)
(0.01059884527 -0.0256787332 0.002653580205)
(0.005492303364 0.009819229701 -0.00232145045)
(0.006719498035 -0.0391736353 0.001768637445)
(0.001057040784 0.01376465247 0.002399051978)
(0.0082398827 -0.03314312104 0.001877920822)
(0.004473349823 -0.002153212634 -0.001829000067)
(0.01067179923 -0.04421645724 0.0004264877977)
(0.004557526776 -0.008123516093 0.0005409921563)
(0.01213760847 -0.04651686728 -0.002693908163)
(0.004139946821 -0.01849975884 -0.007454588065)
(0.00343663392 -0.04186351548 -0.003951098983)
(-0.004513872945 -0.009328222804 0.0003427351407)
(0.006719268887 -0.03852624038 0.0003782627634)
(0.0006178391723 -0.02456518965 -0.005398091265)
(-0.007766693267 -0.04292228996 -0.006574946637)
(-0.02371407679 -0.01644052905 -0.004031672812)
(-0.02253574023 -0.02539147381 -3.474578079e-05)
(-0.01948503705 -0.001074030671 0.0007186418997)
(-0.01160224982 -0.01093378174 0.000951545394)
(0.01389284547 0.02549684699 -0.000425236569)
(0.008002482962 -0.03190821184 0.00188636023)
(0.003546990671 0.01045914897 -0.0006907596628)
(0.01181995785 -0.04366878764 0.001348202748)
(0.005544176574 0.01139412948 0.001718286824)
(0.005062265328 -0.03666869634 0.002060954286)
(0.0003863797093 0.0008330790689 -0.0003744485626)
(0.008258331277 -0.0463746139 0.0007117403731)
(0.001858155651 -0.01074448765 0.002748714496)
(0.007717845392 -0.05139699646 0.0001824254528)
(0.004184986646 -0.02158992941 -0.005165283882)
(0.0068502291 -0.04774785583 -0.004318510739)
(-0.003993668466 -0.01258726557 -5.300104251e-05)
(-0.001860193532 -0.04080498961 0.001432501055)
(-0.003959205622 -0.02686356278 -0.002615572275)
(-0.006675861634 -0.04860678102 -0.004968410107)
(-0.01693526035 -0.01904474241 -0.003137144244)
(-0.01710114738 -0.02383733109 7.558911322e-05)
(-0.01573653242 0.00362260781 0.001151776468)
(-0.01129809693 -0.008575161041 0.0008980886993)
(0.005945719846 0.0229452201 -0.0005769343025)
(-5.172234154e-05 -0.03516265616 0.001033050661)
(-0.002734425346 0.01442213175 -0.0009643778303)
(0.007090675065 -0.03645012569 -0.0007912639617)
(0.00604479613 0.005968058518 -0.001484027086)
(0.0007385740438 -0.04175130968 -0.0001225854578)
(-0.002380097382 0.0009114464476 -0.001304929993)
(0.002719402909 -0.04300173028 -0.0009116523571)
(0.001068366549 -0.009966389344 0.001317966529)
(0.004612411709 -0.04672701553 0.0005869718429)
(0.006733053721 -0.0194578475 -0.00442898678)
(0.009760170204 -0.05002868951 -0.005276609949)
(0.0003653076751 -0.022233984 -0.002500201736)
(-0.003464504191 -0.04695674235 0.0003392981617)
(-0.004907206181 -0.02674927869 -0.001679099619)
(-0.002259372023 -0.04626391833 -0.003131718099)
(-0.006125643713 -0.02063318093 -0.002499638415)
(-0.006405800596 -0.0263928464 -0.0005284211362)
(-0.008468332529 0.001899906204 -0.0002374904257)
(-0.008457470594 -0.01046301839 0.0004247880501)
(0.005344487091 0.02156230138 -3.586076993e-05)
(0.002444748166 -0.03774959953 0.0008452228105)
(0.002897217653 0.01880127451 0.0006505452131)
(0.006333624197 -0.03706336011 1.722244086e-05)
(0.001936332408 0.0009288795991 -0.0004681247411)
(0.001622764462 -0.0483213199 0.001200809652)
(-0.0006580682611 -0.002414333495 0.0005730631327)
(0.0005008374188 -0.04425745883 0.0008517278431)
(-0.00101780234 -0.007710640334 0.001634680175)
(0.0009001181311 -0.04499889543 0.0006699833731)
(0.001758172614 -0.01593935347 -0.000556635706)
(0.005017301593 -0.05729477728 -0.001804704245)
(-0.001725992446 -0.03634088508 -0.001416306415)
(-0.004973567976 -0.0547084317 0.000852712562)
(-0.003345280777 -0.02418616623 0.0005953858306)
(-0.002439517954 -0.04251715174 -0.00109072742)
(-0.002927743593 -0.01765517854 -0.0004321108347)
(-0.001342044759 -0.03007697813 -9.170315311e-06)
(-0.004515559543 -0.007434591498 -0.0004010897721)
(-0.005728732656 -0.01218538877 0.0002491075655)
(0.1018876864 -0.0001573992934 -0.00670504037)
(0.09986207959 -0.006878503836 0.01968631758)
(0.05728554879 -0.002090226503 -0.009757911465)
(0.06046735543 -0.004633825781 0.008447943653)
(0.01715850636 -0.003643624978 -0.007616676461)
(0.01590805911 -0.007777469407 0.00616549839)
(-0.03368128694 -0.004288529139 -0.01134390424)
(-0.02871826929 -0.004414895257 -0.002393319708)
(-0.07069170462 0.0002894188803 -0.01287282805)
(-0.05675388416 0.000957245808 -0.01184489635)
(-0.07417076212 0.004056539359 -0.02608384724)
(-0.04516280269 0.002244626172 -0.01994924721)
(-0.05838286732 0.003398253914 -0.01352597437)
(-0.02984041513 0.003567232898 -0.008873543362)
(-0.02973111021 0.007122611272 -0.01515897272)
(0.006294905519 0.006687571404 -0.02736171543)
(0.009789783337 0.006361877651 -0.02250367753)
(0.02165110766 0.002723332816 -0.01508649619)
(0.01644275217 0.001841042111 0.0003986221456)
(0.02189883342 -0.0001959840576 -0.0006622856616)
(0.09691050495 -0.002080556496 -0.009574288726)
(0.0984768344 -0.01629539988 0.01705752001)
(0.05884183268 -0.009461168922 -0.008208165064)
(0.05935895127 -0.0134878032 0.01003368062)
(0.01492807257 -0.01352201244 -0.006128031465)
(0.01544428509 -0.01906368997 0.007114251883)
(-0.03133336844 -0.0144856542 -0.01198686472)
(-0.02545241773 -0.01283472268 -0.00441934136)
(-0.06692669773 -0.006031747528 -0.01599084694)
(-0.05406159759 0.0004728213476 -0.01347910449)
(-0.07330919913 0.004314142931 -0.02494240279)
(-0.04563189218 0.005530871096 -0.01931546262)
(-0.05746941789 0.005271687813 -0.01653294973)
(-0.0272351095 0.01017110651 -0.01356749057)
(-0.02752199197 0.01642140163 -0.01713895717)
(0.00572102448 0.01801692136 -0.02499851821)
(0.006997964167 0.01509615868 -0.01963260843)
(0.01846615953 0.008682810844 -0.01491652)
(0.01442242033 0.005515901706 -0.00208265121)
(0.02062937352 0.001102864869 -0.002692621012)
(0.08894910834 -0.0003672285292 -0.0132493855)
(0.094561708 -0.02044495431 0.01344843849)
(0.05927553916 -0.01273611454 -0.007029590026)
(0.05754375126 -0.02226589068 0.01157478305)
(0.01324952577 -0.01675439408 -0.006066191458)
(0.01520673146 -0.02446183622 0.007149384591)
(-0.02930396666 -0.01463441508 -0.01190128342)
(-0.02272977244 -0.01774862301 -0.004809842251)
(-0.06136617663 -0.006936017416 -0.01940803717)
(-0.0493849306 -0.001286244074 -0.01383092043)
(-0.07068926282 0.007446288072 -0.02483332506)
(-0.04446128899 0.00876769689 -0.01770037259)
(-0.05515246576 0.01283757036 -0.02196893789)
(-0.02200213159 0.0169393616 -0.0202934817)
(-0.02419602536 0.02700894826 -0.02032613153)
(0.005319603501 0.02556715572 -0.02201459749)
(0.003210685651 0.023531896 -0.01659457035)
(0.01483995205 0.01409406337 -0.01586074078)
(0.01117945416 0.01244290636 -0.006417566267)
(0.01688978966 0.002775654602 -0.006020824855)
(0.08222864718 0.0004864254263 -0.01526917637)
(0.08965587211 -0.02049799803 0.01089371449)
(0.05773069887 -0.01784100932 -0.005833435331)
(0.05638932664 -0.0314411091 0.0131117472)
(0.01349110105 -0.02399491712 -0.006972512378)
(0.01686491922 -0.03140076555 0.005399118522)
(-0.026625557 -0.01958448323 -0.01060187087)
(-0.01996839234 -0.02211975529 -0.004563063565)
(-0.05541759238 -0.01198788574 -0.02058439604)
(-0.04380268145 -0.00450067473 -0.01437700407)
(-0.06630345405 0.004738384766 -0.02335876742)
(-0.04180512422 0.01186254021 -0.0172123549)
(-0.05172651761 0.01715309535 -0.02700515086)
(-0.01724829733 0.02337972899 -0.02716095479)
(-0.02142868116 0.03201222719 -0.02317245139)
(0.003261244099 0.03007213238 -0.01948583178)
(-0.001118233471 0.02747317501 -0.01479482574)
(0.01059112649 0.01822467669 -0.01829670813)
(0.006580652218 0.01675708119 -0.01221611401)
(0.009429675144 0.004519679131 -0.009472421222)
(0.07483439303 0.003115150512 -0.01431904805)
(0.08156286909 -0.02094439988 0.0108165343)
(0.05174489566 -0.01872265975 -0.004994732186)
(0.05304988142 -0.03904770261 0.01500457699)
(0.01340507939 -0.02673500147 -0.007191498705)
(0.018232848 -0.03845527862 0.004775952614)
(-0.02277197666 -0.02026459163 -0.009801711088)
(-0.01731268384 -0.0247494941 -0.002240604553)
(-0.04903409541 -0.01022474316 -0.02191619179)
(-0.03746268671 -0.006601589806 -0.01302945496)
(-0.05924110874 0.006816945489 -0.02780497859)
(-0.03567106639 0.01461548529 -0.01609886943)
(-0.04706962187 0.0260132223 -0.0315653674)
(-0.01151286091 0.0287763172 -0.02994647746)
(-0.01946582946 0.03903662832 -0.02487590781)
(0.002122184981 0.03331942116 -0.01778466161)
(-0.005162483186 0.03288533229 -0.014551405)
(0.007235902207 0.02033078961 -0.02094287106)
(0.00170136177 0.01906340561 -0.01621838625)
(0.001345084128 0.003157198508 -0.01161979364)
(0.06958271379 0.003853458036 -0.01067715162)
(0.07427597079 -0.02330818547 0.01299561585)
(0.04512507839 -0.02098685227 -0.004148973324)
(0.05055624902 -0.04461133365 0.01622879303)
(0.01404964286 -0.03044087461 -0.00573151345)
(0.02134090582 -0.04486105975 0.004497652541)
(-0.01696361296 -0.02431357992 -0.008667769029)
(-0.0128148418 -0.02841683356 -0.002369941459)
(-0.04271569679 -0.01077088642 -0.02087404639)
(-0.03164391097 -0.009016182174 -0.01550318466)
(-0.05141908823 0.005426634414 -0.03268263974)
(-0.0282618787 0.01504495669 -0.01962576775)
(-0.04178491224 0.02920958698 -0.03223738499)
(-0.008079526125 0.03098615995 -0.02971041642)
(-0.01820442738 0.04094509215 -0.02495866572)
(-0.001098808721 0.03487066238 -0.01848808081)
(-0.01028738236 0.03485802135 -0.01601979587)
(0.0007878551155 0.02020454646 -0.02202296988)
(-0.00536818084 0.01661325228 -0.0165811072)
(-0.00679724345 0.0002954853001 -0.01084303751)
(0.06092355805 0.006386381158 -0.007497508583)
(0.06410281461 -0.02710437594 0.01490818175)
(0.03694390886 -0.0178669082 -0.00480825422)
(0.04617478535 -0.045380581 0.01585693257)
(0.01337170698 -0.02670554069 -0.004987195184)
(0.02248525846 -0.04593840464 0.006051958122)
(-0.01117692312 -0.02301131513 -0.009708983816)
(-0.007666824245 -0.03080871203 -0.0006333125688)
(-0.03544364795 -0.006555874865 -0.02088256443)
(-0.02590767779 -0.009951939587 -0.0135315174)
(-0.04233400724 0.006756597917 -0.04285467175)
(-0.01891279572 0.0124257995 -0.02030613006)
(-0.03586089227 0.03198300935 -0.03255015975)
(-0.00327874253 0.0300460904 -0.02534912116)
(-0.01671136699 0.04274244774 -0.02505086191)
(-0.002206810177 0.03392147051 -0.0206869928)
(-0.01552337361 0.03670804129 -0.01833997814)
(-0.00570021384 0.01845745736 -0.0211447862)
(-0.01224077382 0.0146792088 -0.01296369718)
(-0.01108999702 -0.002962809527 -0.007918730564)
(0.05465426255 0.009411057098 -0.00627567358)
(0.05730448216 -0.02975334472 0.01450313602)
(0.03251059683 -0.01359591662 -0.006076065812)
(0.04411239301 -0.04466932086 0.01345102796)
(0.01383545898 -0.02331077344 -0.004111368531)
(0.02388262439 -0.0461463014 0.006922205994)
(-0.006323212249 -0.02436593711 -0.01003726878)
(-0.001067417085 -0.03564915512 -0.002790384104)
(-0.02811184551 -0.006172894913 -0.01929985956)
(-0.02211057652 -0.0120442495 -0.01720011937)
(-0.035669846 0.009218952732 -0.0471607113)
(-0.01055126251 0.005934273221 -0.02475880754)
(-0.02932959096 0.02906395427 -0.03111222167)
(-0.0005585656043 0.02527504081 -0.02373107863)
(-0.01544320722 0.03860331664 -0.02535830625)
(-0.005393567445 0.02813328974 -0.02430804353)
(-0.02122374564 0.03311986757 -0.02065786395)
(-0.01482258165 0.01570124546 -0.01904440695)
(-0.02041872619 0.01377073636 -0.007749137045)
(-0.01551497363 -0.00320491699 -0.003909038645)
(0.04619695491 0.01281507748 -0.007510568042)
(0.04809423622 -0.0293096708 0.01124630782)
(0.0266636083 -0.005929783378 -0.007079139048)
(0.03910686127 -0.04158917389 0.01199865296)
(0.01252850328 -0.01690458293 -0.003804676172)
(0.02167832734 -0.04306653897 0.009447268059)
(-0.003815883744 -0.02094967679 -0.009549953757)
(0.005341968812 -0.03784244198 -0.001604787684)
(-0.01892261454 -0.002861953978 -0.0182061737)
(-0.0149683105 -0.01341015273 -0.01250896116)
(-0.02966537679 0.01588843829 -0.04058566572)
(-0.004972202266 0.0007117639436 -0.0212044435)
(-0.02215707542 0.02818544913 -0.02917657409)
(0.00337819219 0.01970791639 -0.02141309481)
(-0.0146630415 0.03447165941 -0.02539462601)
(-0.006082669449 0.01936805925 -0.02609176103)
(-0.02432159301 0.02845555613 -0.02219731643)
(-0.01939241448 0.01299616872 -0.01742418838)
(-0.02551567226 0.01680438841 -0.004136138787)
(-0.01895789647 -0.001389837977 -0.001132972195)
(0.04261335306 0.01415625157 -0.009614534989)
(0.04437723469 -0.03068127316 0.007680047751)
(0.02411946732 -0.002340793244 -0.005094007602)
(0.03614400352 -0.04250591667 0.01235381226)
(0.01301142578 -0.01595952859 -0.002073688592)
(0.02094433512 -0.04462909429 0.01045754919)
(-0.002696925875 -0.01886343762 -0.00647499747)
(0.01189156856 -0.04078076017 -0.003219719028)
(-0.0109912092 -0.006366084825 -0.01705913052)
(-0.008824830455 -0.02017217005 -0.01323804386)
(-0.02571875191 0.01139936949 -0.0309741574)
(-0.001931401701 -0.006891326138 -0.02140309808)
(-0.01586820874 0.02128315098 -0.02833418596)
(0.003789215537 0.01055653122 -0.02313962399)
(-0.01565212643 0.02553024245 -0.02425087202)
(-0.009635524496 0.007768252489 -0.02582985801)
(-0.02574949828 0.02062709482 -0.02227847951)
(-0.02305043855 0.009596019722 -0.01770811979)
(-0.03049266455 0.01861407561 -0.004409636047)
(-0.02679194239 0.0008375464 -0.001287878447)
(0.03413408931 0.01408840755 -0.0103224233)
(0.03680806271 -0.03211370285 0.006611712203)
(0.01861373292 -0.0006435849701 -0.001551269235)
(0.02929913703 -0.04206226135 0.01387450597)
(0.0112255949 -0.0137527999 -0.00211583311)
(0.01956907002 -0.04496295817 0.0104117354)
(-0.001189444442 -0.01045165675 -0.00391910962)
(0.01438622094 -0.03706165773 -0.001009073649)
(-0.004528599696 -0.006437515516 -0.01681662815)
(-0.002359550806 -0.02540972346 -0.008340013776)
(-0.02028715347 0.01040150604 -0.02210128983)
(0.001941810829 -0.01098533599 -0.01690490108)
(-0.009778920264 0.01728737719 -0.02863157849)
(0.006263781027 0.001494669264 -0.02367907913)
(-0.01659804487 0.01844988138 -0.0217026901)
(-0.009551229245 -0.0007583690049 -0.02191002507)
(-0.02305459551 0.01517611574 -0.02075894508)
(-0.02077189344 0.004933826774 -0.01940350606)