/*--------------------------------*- C++ -*----------------------------------*\
| =========                 |                                                 |
| \\      /  F ield         | OpenFOAM: The Open Source CFD Toolbox           |
|  \\    /   O peration     | Version:  5.x                                   |
|   \\  /    A nd           | Web:      www.OpenFOAM.org                      |
|    \\/     M anipulation  |                                                 |
\*---------------------------------------------------------------------------*/
FoamFile
{
    version     2.0;
    format      ascii;
    class       volScalarField;
    location    "6.8";
    object      p;
}
// * * * * * * * * * * * * * * * * * * * * * * * * * * * * * * * * * * * * * //

dimensions      [1 -1 -2 0 0 0 0];

internalField   nonuniform List<scalar> 
30538
(
101298.6325
101296.906
101306.552
101308.8969
101309.1972
101311.6784
101320.2601
101323.6689
101323.6337
101325.6507
101335.308
101343.5064
101344.857
101341.3336
101338.3793
101334.7157
101331.3888
101328.3567
101323.5042
101310.7717
101300.6935
101300.1129
101302.439
101303.9645
101309.1316
101313.7648
101321.2992
101324.3983
101325.449
101326.9032
101333.4029
101340.5039
101343.7612
101342.5157
101340.2334
101336.6837
101331.8171
101325.309
101317.1854
101306.7989
101302.9223
101303.3874
101298.4304
101298.8397
101307.9501
101313.5086
101319.572
101322.6167
101326.3969
101328.4934
101332.3224
101337.7485
101342.4083
101343.2452
101342.16
101339.5346
101333.9135
101323.2303
101310.6254
101301.8488
101303.0726
101303.109
101295.5961
101295.3712
101305.7753
101310.9542
101314.5459
101317.497
101324.0461
101328.3219
101331.8054
101336.7916
101342.1503
101343.6357
101342.8183
101341.4015
101336.5983
101323.749
101307.6262
101299.4607
101300.2375
101297.7791
101293.7001
101293.3099
101301.2938
101305.5216
101307.6775
101310.7593
101319.2289
101325.9897
101331.5803
101337.6288
101343.5411
101344.7992
101342.7544
101341.3227
101337.5646
101325.5805
101309.4135
101300.5607
101295.6999
101289.5901
101291.7945
101292.0055
101295.7721
101299.1531
101301.7291
101305.1459
101313.2649
101321.1083
101329.8506
101338.5674
101345.8891
101347.3864
101343.226
101339.1159
101334.7965
101325.9668
101314.0423
101304.015
101292.6716
101283.7704
101289.9448
101290.8962
101291.3921
101294.1624
101298.894
101302.4783
101307.8219
101315.3991
101326.3597
101337.6775
101347.2954
101350.4447
101345.2496
101336.6542
101329.6216
101323.8463
101317.4269
101307.6047
101293.0517
101283.5778
101288.4197
101289.0483
101288.4522
101290.8614
101298.3446
101302.1328
101304.4438
101310.5642
101321.9241
101334.8173
101346.3236
101352.0068
101348.2005
101336.0392
101325.3386
101320.7597
101318.3962
101309.1645
101296.0845
101288.1805
101286.5003
101285.1943
101284.6537
101287.0952
101296.4941
101301.4223
101303.8221
101308.2443
101318.2896
101331.2453
101343.0623
101350.3985
101349.2314
101337.3088
101325.2159
101319.832
101318.0842
101308.9238
101298.7351
101292.0445
101282.897
101278.8528
101279.5686
101282.6569
101291.3477
101298.5259
101304.2748
101307.3215
101315.6283
101327.9264
101339.2106
101345.8602
101346.0778
101338.1792
101328.5817
101322.1998
101317.8824
101307.864
101298.8121
101292.2062
101278.67
101273.0101
101275.8862
101279.5626
101285.1903
101293.655
101302.3521
101305.5042
101312.9707
101325.1238
101336.0588
101340.1379
101338.9878
101336.2205
101332.3582
101326.2708
101318.7102
101307.1097
101296.4673
101289.2258
101276.6914
101270.7678
101276.2866
101279.5593
101281.9377
101288.9829
101297.2693
101301.7403
101309.014
101321.5836
101333.2279
101335.6502
101331.563
101331.6797
101332.6018
101328.9132
101319.951
101307.1567
101294.6474
101287.0133
101278.3464
101273.2529
101278.205
101281.5976
101282.6962
101286.6184
101292.8309
101297.7226
101304.707
101316.8045
101329.3088
101332.0321
101327.2891
101327.1229
101330.284
101328.4605
101319.9748
101307.0798
101295.1372
101287.875
101282.3598
101277.2257
101278.0894
101281.6201
101284.7176
101287.3332
101292.0041
101296.0704
101301.7328
101310.767
101322.4488
101328.2007
101326.3921
101324.8987
101326.2776
101324.7473
101317.3643
101306.1975
101297.6251
101291.4738
101286.9375
101280.5272
101276.1227
101278.9941
101285.8933
101290.4119
101294.0201
101297.3987
101300.677
101304.7278
101313.7863
101323.1146
101326.7569
101324.0743
101321.9481
101318.9797
101312.6515
101304.7093
101299.8858
101294.4856
101290.2719
101282.8719
101275.3875
101276.49
101285.3336
101291.5812
101295.6056
101298.8823
101301.3522
101302.1629
101307.1361
101317.3696
101324.2501
101321.6773
101317.1445
101313.149
101308.4745
101303.7212
101300.0397
101295.2929
101291.9126
101286.2942
101279.573
101278.1952
101284.4923
101290.3697
101294.5998
101298.4573
101302.2137
101303.7463
101305.9877
101312.2779
101317.5287
101316.2734
101312.0798
101308.8482
101306.3338
101303.5478
101298.4789
101294.3676
101292.7465
101290.8606
101287.832
101284.8201
101285.498
101289.2097
101291.8184
101295.8287
101302.8269
101306.9508
101308.7288
101309.1346
101309.4253
101308.833
101307.1451
101305.9669
101305.7639
101303.5724
101297.0282
101293.5028
101294.2657
101296.0145
101296.211
101292.7222
101289.532
101289.5676
101290.9009
101294.176
101302.5725
101310.3274
101311.0159
101306.6059
101302.6083
101301.5394
101302.439
101303.9323
101305.5037
101303.3088
101297.2238
101297.411
101297.2069
101299.8055
101300.9487
101296.8014
101295.6649
101295.9989
101294.8922
101298.2064
101301.2191
101304.8885
101306.6074
101301.861
101298.8668
101299.5708
101299.8147
101301.2686
101302.7116
101301.0192
101299.7326
101300.594
101307.8361
101310.9125
101314.1982
101313.7996
101318.8806
101323.9369
101325.3897
101323.7959
101327.8305
101335.3451
101339.4794
101336.2261
101329.6013
101325.0135
101324.8643
101323.7866
101318.632
101308.6281
101301.0748
101301.6601
101304.7034
101306.5632
101311.2577
101312.9419
101318.6576
101323.1466
101326.2526
101326.1647
101328.9343
101333.9095
101337.3719
101336.0104
101332.3692
101329.0342
101326.7174
101321.6969
101313.9395
101305.1501
101302.3118
101302.1473
101301.8415
101302.5301
101308.5332
101312.2929
101317.3971
101320.1382
101325.0518
101328.2478
101330.6106
101332.4783
101334.6738
101335.3127
101335.2818
101333.8195
101329.2551
101319.9047
101308.6882
101301.0118
101302.0631
101300.7959
101299.602
101299.8686
101306.3681
101311.712
101315.1062
101315.1029
101321.0493
101327.4606
101331.4037
101332.032
101333.1686
101334.8773
101336.8914
101336.4649
101330.7849
101319.3786
101306.6144
101299.3477
101299.9375
101297.2606
101298.1038
101298.224
101303.6232
101309.1554
101311.5806
101310.0861
101315.8546
101324.3
101330.7317
101332.3819
101333.6646
101335.8346
101337.6929
101336.3814
101330.6374
101320.5023
101309.1753
101301.0906
101297.0461
101292.6636
101295.6145
101296.1764
101299.9929
101304.6614
101307.5805
101307.1659
101311.4505
101319.827
101328.1075
101332.4572
101335.4736
101338.4054
101338.7829
101334.5462
101328.6435
101321.7299
101314.0328
101305.0868
101295.1555
101289.5291
101292.0647
101293.3192
101296.2351
101299.3931
101304.4432
101306.7137
101309.3507
101315.4576
101324.2242
101331.37
101337.2552
101341.4529
101340.6056
101333.0528
101326.1585
101321.9231
101317.3386
101308.0246
101295.2703
101288.8582
101288.5247
101290.0942
101292.5174
101294.0543
101301.4324
101306.6824
101308.9059
101312.1457
101320.0314
101329.0212
101337.2866
101342.9698
101342.3094
101333.0778
101324.636
101320.948
101317.7238
101308.7237
101297.2136
101290.7627
101286.6309
101286.6449
101288.5319
101289.3014
101297.005
101304.3837
101309.1355
101310.6636
101316.9663
101326.4794
101335.8622
101342.4844
101342.3617
101333.7386
101325.3558
101320.5149
101316.2294
101307.715
101298.9125
101292.9733
101286.074
101282.7715
101284.2364
101285.7377
101291.2003
101299.5242
101307.9013
101310.1075
101315.1527
101324.4778
101334.3389
101340.4812
101339.6455
101333.1548
101327.0824
101321.6582
101315.5825
101306.7414
101298.8128
101293.3441
101284.7149
101278.7663
101280.5571
101283.9556
101286.6657
101294.2903
101304.3782
101308.1461
101313.3347
101322.3875
101332.9596
101337.565
101334.8046
101330.5465
101328.1779
101324.2218
101317.2043
101307.0035
101296.8785
101290.9746
101282.7632
101275.8879
101278.7145
101283.6425
101286.2174
101291.2231
101299.0493
101304.2777
101310.1964
101319.141
101329.9228
101334.0929
101330.1694
101327.2839
101327.5787
101325.7318
101319.2383
101307.887
101294.9007
101288.4379
101281.6927
101276.0487
101278.4268
101284.1279
101288.7962
101290.9535
101294.1552
101299.7837
101306.8954
101315.0564
101324.5099
101329.4618
101327.7914
101325.6282
101325.9944
101324.3562
101318.7802
101307.6387
101294.7863
101287.2285
101282.6276
101278.9564
101278.4205
101282.6197
101289.61
101291.5061
101292.419
101297.5119
101305.2435
101310.9918
101317.2804
101323.6953
101327.0419
101326.0825
101323.7129
101319.9816
101314.1173
101305.4254
101296.4531
101288.7799
101285.372
101283.344
101279.0707
101279.7645
101287.4353
101291.8328
101293.7996
101298.716
101305.6096
101308.0268
101310.2779
101317.8516
101325.9377
101326.3146
101321.1554
101314.3888
101307.7429
101302.2546
101298.2262
101291.2934
101288.5004
101286.6009
101280.9429
101278.185
101284.1796
101290.9482
101296.1389
101300.6505
101305.5507
101306.7686
101307.304
101313.5515
101321.2874
101322.6884
101317.6905
101310.4959
101303.9354
101300.5079
101298.2177
101293.0999
101290.5199
101288.2946
101284.8163
101281.0828
101283.3139
101290.0223
101296.9233
101300.4781
101303.4238
101306.5935
101309.126
101311.5054
101313.8236
101315.1989
101313.5918
101309.2316
101304.6273
101301.1378
101297.2997
101293.5654
101291.2314
101289.5296
101290.2396
101288.0331
101286.5897
101291.0817
101296.2043
101297.4541
101299.3832
101305.4912
101311.8212
101310.98
101306.603
101306.8642
101309.2054
101309.2543
101307.2334
101302.942
101296.8583
101294.337
101292.6629
101291.537
101295.3218
101295.8282
101292.9577
101292.8667
101295.3656
101295.0257
101296.7549
101304.328
101311.9698
101309.8939
101302.2879
101300.7487
101304.8572
101307.786
101307.984
101303.7487
101297.7177
101297.5977
101296.4003
101297.9172
101299.2078
101298.6987
101298.0296
101297.0434
101296.9746
101297.9705
101297.8361
101302.3799
101306.4098
101303.9584
101300.0035
101298.8611
101300.8867
101303.5968
101304.5331
101301.7946
101304.1979
101311.8279
101308.3585
101311.4735
101321.3363
101318.9548
101316.5851
101321.9558
101327.1151
101321.9925
101316.1401
101318.8262
101326.7366
101328.0572
101320.2322
101312.3044
101311.6285
101312.016
101309.7641
101304.8818
101302.6304
101307.0976
101308.9516
101310.6607
101315.9711
101314.9862
101315.301
101319.3262
101325.6246
101324.9297
101321.1485
101319.803
101323.7195
101325.1685
101322.3356
101318.0424
101316.6216
101313.5415
101308.5382
101303.0199
101300.0465
101300.3192
101308.7251
101309.6617
101310.4328
101312.4339
101315.6872
101316.0481
101321.4158
101325.8768
101326.314
101321.8335
101320.3056
101321.3429
101323.7014
101323.8064
101321.0717
101314.4397
101306.568
101300.935
101297.5714
101294.8562
101306.985
101308.2492
101306.8996
101312.4566
101317.9098
101313.602
101314.8896
101322.5404
101328.5149
101324.272
101318.1255
101318.3629
101324.1119
101326.2444
101322.2187
101313.8094
101305.4218
101300.1714
101296.6826
101293.834
101305.001
101306.5571
101305.5182
101311.6465
101318.5671
101312.8227
101309.644
101317.0324
101326.9595
101325.9434
101319.244
101318.6271
101324.3362
101325.7967
101320.7745
101313.4473
101307.5267
101301.9593
101298.6306
101297.1402
101301.3227
101303.4538
101304.9479
101308.7017
101316.2656
101313.7797
101308.7893
101312.7704
101322.4235
101325.4385
101322.6266
101322.0236
101325.4925
101324.5517
101319.1161
101314.362
101311.3991
101305.4384
101300.9836
101300.6987
101295.6588
101298.4242
101302.4981
101302.9829
101311.295
101315.4162
101312.8708
101311.5627
101317.7429
101322.7865
101324.8737
101325.4344
101327.5585
101324.6292
101319.1386
101316.1089
101314.1502
101307.6981
101301.6975
101300.3645
101289.8108
101292.6121
101298.1633
101296.446
101304.3339
101313.6198
101316.7625
101312.4646
101314.1307
101319.6737
101324.5033
101326.7152
101328.8152
101325.7598
101321.1993
101317.7849
101314.6729
101307.677
101300.274
101296.1673
101288.1279
101289.1225
101294.1303
101292.8723
101297.3987
101307.4015
101315.6583
101312.2422
101313.0297
101317.7356
101323.5024
101327.1561
101328.8337
101326.7608
101323.4321
101318.6621
101313.1805
101306.0584
101298.1932
101292.5965
101291.1991
101288.5767
101290.9348
101292.4455
101292.6226
101299.5372
101309.6828
101311.2908
101313.2284
101317.569
101323.9562
101328.3527
101328.5836
101325.7778
101323.2822
101318.8029
101312.0546
101304.7889
101295.9536
101291.8104
101294.2153
101288.3365
101287.2406
101291.9627
101291.731
101294.5963
101302.5503
101308.7022
101313.2347
101317.2899
101324.1801
101329.5852
101327.9525
101323.2713
101321.289
101318.6943
101313.0223
101305.1418
101295.5058
101292.2766
101292.9926
101286.379
101282.6043
101288.476
101294.0338
101295.2433
101298.0805
101305.3137
101311.5681
101315.6156
101321.7448
101327.6833
101326.8784
101321.5194
101319.2628
101318.2162
101314.8631
101306.6149
101295.9549
101291.583
101287.6534
101284.6459
101279.8233
101283.8082
101296.6016
101298.6546
101296.2788
101301.0472
101308.8241
101313.1198
101316.8021
101322.6065
101325.6522
101322.3383
101318.5803
101316.38
101313.8147
101306.6711
101296.8664
101289.3938
101283.2617
101285.1883
101281.5512
101280.8485
101293.9217
101298.2547
101295.1653
101298.6588
101307.8386
101311.248
101311.6936
101316.4988
101324.1084
101324.2712
101318.6546
101313.085
101309.6151
101304.4294
101297.1837
101287.6867
101282.8165
101288.3168
101286.8018
101281.2362
101286.7212
101293.5781
101295.6921
101299.8474
101308.9479
101311.3629
101308.8254
101311.7857
101321.2866
101324.8478
101318.4423
101309.4867
101304.1546
101300.7891
101296.8637
101288.3349
101285.7298
101290.2466
101291.4621
101285.2028
101281.7744
101288.7341
101297.2025
101302.5758
101308.888
101311.1647
101309.6889
101310.6994
101316.4861
101320.7418
101316.6126
101308.0287
101301.7697
101299.0711
101295.6991
101290.9586
101289.1837
101289.0656
101292.3263
101290.7933
101284.2723
101287.4305
101298.1792
101303.5835
101305.3805
101308.1197
101311.9965
101312.7851
101311.3044
101313.0472
101312.9667
101309.0058
101304.5563
101300.3522
101296.0714
101294.5491
101291.6546
101287.1664
101290.8985
101295.1156
101292.6786
101292.2599
101299.0581
101301.108
101297.3946
101301.9558
101312.5311
101314.1263
101306.9332
101305.2129
101309.0279
101310.7275
101308.8121
101303.1713
101298.2568
101298.0183
101293.6687
101286.9223
101290.0152
101299.1065
101301.7649
101297.7966
101298.7537
101296.962
101292.4038
101296.6822
101309.1771
101312.4116
101304.9886
101301.0656
101305.3952
101309.4215
101309.3026
101304.4284
101299.661
101299.3349
101296.9815
101295.3626
101294.4959
101300.6817
101303.4122
101298.8
101298.4973
101298.4067
101295.2155
101298.5922
101303.6283
101305.8676
101302.5157
101299.163
101301.4573
101304.5395
101304.9441
101302.782
101309.361
101321.0873
101308.4286
101313.7644
101324.8808
101323.2136
101318.3559
101315.4397
101317.2182
101322.9042
101319.2676
101302.4637
101298.6685
101309.61
101317.1937
101310.0924
101299.3753
101294.0243
101295.5173
101299.898
101304.568
101311.7981
101315.1353
101317.8801
101320.7544
101319.6371
101316.6792
101313.6936
101318.4906
101323.0763
101319.0884
101304.9984
101300.497
101306.7398
101312.355
101309.3823
101303.5326
101300.5465
101300.8879
101301.507
101298.1703
101299.8865
101317.8001
101319.1751
101314.1697
101315.4977
101317.7727
101314.5162
101317.1431
101318.0284
101316.6566
101309.8741
101304.8256
101304.0251
101306.6548
101308.1697
101307.7206
101306.8183
101305.9428
101303.2264
101293.3643
101291.5256
101314.0431
101315.4431
101307.1288
101311.7647
101321.8569
101318.7912
101314.0734
101309.4745
101311.9053
101315.4793
101311.0213
101303.3784
101302.9232
101306.8818
101309.0097
101308.7141
101307.8641
101303.7005
101294.2347
101293.198
101308.7689
101311.8561
101306.9296
101308.8057
101322.0153
101323.448
101311.3851
101300.939
101306.9872
101319.5175
101316.3668
101304.6637
101301.9276
101306.3537
101308.3581
101307.8969
101307.0679
101303.6784
101300.4952
101304.0216
101304.0752
101308.5599
101311.602
101306.6008
101317.4306
101325.8152
101313.8473
101298.8553
101303.8309
101317.9646
101317.9328
101306.1113
101303.5773
101308.3007
101308.747
101306.8837
101305.1332
101303.4018
101307.7478
101313.9395
101298.9499
101303.5996
101311.3623
101302.5674
101308.6216
101324.3101
101322.7622
101305.5908
101302.2329
101312.5563
101316.1954
101307.0426
101306.198
101312.4936
101312.2982
101308.2156
101304.5596
101302.9314
101308.9852
101312.8555
101293.5692
101296.7573
101305.3765
101298.8615
101299.1237
101316.3384
101328.5511
101314.2349
101304.4552
101308.5356
101313.1896
101307.2218
101307.3104
101315.048
101316.5178
101311.6527
101305.7096
101303.2023
101302.3171
101300.7072
101291.981
101292.5309
101299.3823
101299.0152
101294.5603
101306.4211
101321.2839
101314.9863
101308.2304
101307.5828
101310.5697
101308.0659
101308.5545
101315.4102
101318.0995
101314.2239
101307.3407
101303.296
101293.1325
101287.8634
101296.9583
101293.7264
101295.6922
101301.3959
101297.1919
101299.0286
101305.492
101308.6545
101310.9182
101309.4854
101311.3667
101312.4921
101312.3847
101314.7793
101316.0008
101313.8286
101308.0092
101302.9659
101288.9001
101285.1679
101303.5084
101298.1782
101292.0367
101299.5751
101304.2259
101298.5198
101293.4014
101302.8965
101310.9185
101310.4863
101313.5624
101318.4589
101318.0486
101315.0619
101312.2721
101310.7024
101307.0662
101302.4038
101292.9916
101291.8035
101302.4228
101300.1665
101287.7197
101290.7841
101305.9503
101302.5302
101293.093
101300.8996
101309.1207
101310.2532
101312.8334
101319.3047
101321.8987
101316.6606
101310.0468
101307.3688
101305.2342
101302.0032
101300.557
101298.0232
101292.5514
101298.5167
101285.5625
101280.4021
101300.3177
101307.381
101301.1677
101300.897
101307.1688
101310.6034
101311.1255
101314.7836
101320.7014
101318.4262
101310.8442
101305.9481
101303.5441
101301.9534
101304.3511
101297.9389
101283.5615
101294.9072
101290.3512
101278.3921
101289.5106
101303.9717
101306.9157
101301.3237
101305.5672
101313.0687
101310.9587
101308.0999
101314.8285
101317.9953
101313.1474
101307.1516
101303.9174
101302.5645
101301.4339
101292.7747
101282.5405
101292.1761
101300.404
101286.4913
101278.3363
101293.6403
101305.3222
101301.2935
101306.1927
101316.1252
101314.0416
101305.2367
101308.1138
101315.6109
101314.9505
101309.2338
101305.7859
101303.2474
101295.1202
101288.2977
101286.9555
101288.9118
101304.391
101298.841
101279.1306
101284.6368
101298.2373
101301.8636
101306.9404
101314.4733
101316.1103
101308.8386
101306.7223
101312.2852
101313.4342
101310.3091
101308.0053
101304.0735
101291.6271
101290.4032
101291.493
101285.7728
101297.7861
101306.4173
101293.0111
101283.3937
101292.7142
101302.9339
101306.8269
101307.324
101313.0014
101315.6522
101311.6807
101308.7452
101308.2854
101308.8296
101309.3021
101304.4137
101295.5929
101297.7044
101295.3057
101287.0208
101285.6095
101304.0617
101309.9273
101293.2431
101292.1781
101305.6684
101304.3092
101296.1925
101304.4502
101317.5965
101316.5863
101306.7673
101302.9462
101305.7668
101308.2313
101304.0667
101303.6515
101302.8637
101297.2388
101289.1106
101278.8891
101300.8774
101319.2748
101303.3945
101295.2334
101303.9809
101301.2865
101288.8439
101295.1524
101312.7008
101316.3691
101306.4544
101300.7943
101301.8269
101302.9335
101302.467
101305.2154
101301.8356
101298.4461
101295.8366
101288.3859
101300.9644
101311.1243
101301.6184
101297.3506
101301.0353
101299.4311
101293.873
101294.7725
101305.9689
101309.0869
101302.8314
101299.8293
101299.8445
101299.8625
101301.6598
101309.3958
101314.9978
101308.4892
101320.6285
101321.6865
101316.2366
101326.951
101317.5859
101302.7806
101315.7146
101317.3103
101288.8787
101277.1448
101288.8767
101310.6904
101310.2929
101290.6888
101279.821
101283.7335
101297.0353
101304.8534
101310.8875
101322.0114
101329.0658
101321.8798
101318.9941
101323.5911
101316.5443
101305.7802
101307.2107
101309.4423
101292.7935
101278.494
101282.8975
101297.9365
101299.905
101292.5668
101288.5694
101293.0968
101300.4177
101299.2517
101305.3464
101326.8134
101328.8085
101317.8109
101319.081
101319.7833
101316.7295
101310.2578
101298.4782
101298.3599
101299.6022
101287.5714
101282.1178
101285.4204
101288.4125
101293.5254
101297.5743
101302.6579
101304.1078
101295.4323
101301.5651
101317.7762
101316.3087
101311.6915
101314.7962
101314.8239
101321.1003
101321.6779
101294.292
101285.9999
101307.206
101305.5487
101289.7104
101277.6514
101280.8835
101293.5627
101302.9346
101307.1633
101304.8208
101297.7201
101305.8794
101305.5681
101305.9892
101314.4954
101313.062
101309.9606
101322.9013
101327.5271
101296.1955
101279.9793
101303.9201
101316.2085
101298.5012
101278.4832
101279.7452
101292.7237
101303.0731
101304.8319
101302.9843
101304.6417
101315.4557
101299.6267
101302.9341
101324.3895
101313.2239
101303.895
101318.6893
101327.2233
101305.7897
101279.7159
101285.956
101309.3585
101302.396
101288.0242
101286.7454
101295.1368
101300.6264
101298.7093
101299.2092
101312.4595
101321.484
101299.9788
101302.9823
101324.2456
101312.5205
101293.9088
101307.7561
101329.0297
101317.8464
101287.2689
101277.5249
101298.9105
101299.3358
101292.7627
101294.892
101300.7124
101300.9368
101295.1121
101297.0865
101311.6007
101314.8981
101302.6437
101300.8394
101314.0622
101311.574
101286.3983
101297.1454
101326.8399
101330.6651
101304.1364
101281.6298
101288.5793
101294.5835
101290.9016
101297.6415
101305.0644
101304.4206
101296.8352
101298.3493
101299.3855
101297.0597
101302.9091
101298.6721
101303.8937
101310.4674
101289.6521
101291.1347
101312.9043
101324.8457
101314.9379
101291.3947
101289.157
101291.6071
101290.5436
101297.5232
101306.6587
101307.8777
101300.8066
101300.2332
101286.4178
101281.4244
101302.3244
101300.0773
101299.1915
101307.7859
101302.3132
101293.4673
101290.042
101303.1958
101313.2043
101296.2458
101292.5385
101295.0596
101295.8164
101298.7527
101305.5629
101308.2229
101302.8049
101300.1128
101285.603
101281.2087
101304.482
101306.0418
101297.1939
101300.8385
101313.7842
101303.6305
101281.7112
101288.1634
101303.8155
101297.9303
101300.7417
101303.6084
101303.9257
101302.7082
101303.5749
101305.0522
101300.6917
101297.8959
101298.0138
101296.221
101301.4382
101309.5945
101296.9799
101291.0404
101309.368
101311.4692
101294.9087
101288.4135
101292.1871
101300.3948
101309.7503
101311.1558
101309.7683
101306.9056
101302.6645
101301.01
101296.8421
101295.754
101313.0526
101309.3985
101291.1022
101305.7373
101298.4827
101283.4492
101289.9176
101308.0803
101319.3352
101303.4481
101287.9677
101302.2273
101314.0968
101312.6338
101309.5942
101308.4451
101304.0493
101300.6636
101296.3608
101297.3287
101315.4733
101310.9565
101286.617
101295.5776
101302.6122
101288.8955
101273.9015
101296.2589
101328.3404
101314.6793
101292.3379
101304.4901
101312.7706
101306.7432
101303.4292
101306.0833
101306.7526
101305.1544
101301.6564
101302.5743
101302.2624
101300.3498
101291.5812
101285.8816
101308.4073
101305.9865
101273.0262
101281.9879
101312.494
101311.8628
101302.1202
101309.2799
101312.1472
101302.8652
101297.598
101302.69
101308.9295
101310.4245
101309.3293
101307.7574
101286.027
101286.7849
101296.9196
101282.9775
101307.2463
101315.5378
101289.0999
101277.5596
101287.7843
101300.5064
101309.3751
101311.7068
101311.6219
101304.3918
101299.9264
101302.7154
101308.378
101311.406
101312.4012
101309.1511
101283.2947
101286.191
101298.1537
101287.5581
101296.5233
101310.8665
101311.191
101288.6101
101274.0884
101291.5167
101312.7601
101310.3673
101306.7599
101308.195
101309.8906
101306.6175
101304.7869
101306.5317
101307.8577
101305.4842
101297.4571
101299.0344
101298.487
101299.6745
101282.2166
101294.9577
101325.8169
101309.0517
101280.7234
101293.6057
101311.5539
101304.759
101298.356
101309.556
101319.2361
101310.6243
101300.2408
101299.3081
101299.4968
101299.9478
101315.6096
101307.0381
101298.331
101311.6362
101277.3215
101279.8418
101322.8762
101325.1764
101298.2697
101295.5375
101303.9612
101298.6213
101292.4367
101306.3522
101318.9661
101311.8327
101298.9456
101294.9018
101291.9549
101296.4587
101316.2457
101303.6198
101297.5813
101303.7017
101287.3852
101293.8849
101309.822
101309.833
101302.0385
101297.5281
101300.1732
101298.1754
101294.03
101301.9097
101310.2639
101307.1722
101299.4487
101295.4951
101293.6998
101298.0681
101301.084
101302.877
101305.1352
101317.6309
101324.3377
101297.3681
101323.279
101354.3962
101325.1311
101259.8645
101261.8394
101315.6537
101314.3584
101256.3409
101242.486
101285.9972
101298.8597
101292.1429
101284.4778
101292.5958
101303.015
101309.5361
101325.2224
101337.2775
101321.5292
101312.8908
101322.52
101328.4005
101309.9372
101279.8297
101270.9934
101291.8113
101293.9432
101269.0726
101262.1818
101278.5565
101287.5022
101287.8512
101287.3817
101295.9986
101304.1698
101315.518
101331.2944
101339.8007
101319.9137
101325.4148
101312.2442
101299.3749
101300.1639
101306.2201
101283.4995
101262.1448
101269.2662
101286.5432
101285.5645
101270.4625
101275.2981
101286.1909
101292.8318
101300.3887
101304.0813
101319.1952
101316.4075
101318.6883
101322.5012
101331.006
101297.6735
101280.3919
101304.7329
101332.1634
101299.5667
101239.5069
101249.3661
101299.4499
101300.5003
101265.6654
101267.613
101288.5191
101298.6465
101303.6405
101305.583
101321.9875
101298.778
101297.3616
101331.2434
101340.2843
101292.358
101268.9599
101308.4013
101345.5315
101314.7236
101236.6356
101243.895
101306.6441
101307.8252
101264.7069
101266.4453
101291.3913
101300.1253
101302.547
101308.1688
101322.1172
101295.9635
101293.919
101332.1543
101342.8653
101293.7101
101255.0475
101300.7689
101346.0753
101323.1371
101242.7542
101246.1795
101306.18
101309.8864
101268.8407
101271.44
101292.5733
101296.7646
101297.2956
101309.4012
101316.2918
101308.0072
101304.7406
101320.3246
101336.1846
101297.2644
101243.0038
101282.0445
101344.182
101319.2715
101248.5683
101248.3058
101299.8983
101309.4064
101275.9856
101278.88
101293.9431
101293.2985
101292.8052
101304.0536
101303.0178
101319.7086
101313.9989
101305.3859
101327.1684
101304.7926
101244.2899
101266.5585
101354.5104
101311.3904
101262.607
101255.0422
101295.2086
101307.4143
101279.7091
101283.3186
101295.8409
101293.535
101293.2714
101290.9341
101287.4452
101319.4162
101315.4325
101298.1987
101318.0098
101314.6417
101262.6818
101257.7897
101332.8856
101341.0091
101291.4041
101263.4207
101293.3769
101303.2526
101280.2399
101285.1741
101298.266
101296.6937
101297.2573
101283.8016
101280.3581
101305.9676
101313.4722
101300.9286
101308.6893
101319.8541
101287.7273
101260.9424
101286.6243
101333.2166
101299.5334
101268.6744
101291.1024
101300.8898
101282.4057
101287.0968
101300.4098
101299.8152
101299.2714
101293.9855
101289.8529
101291.0591
101312.3099
101307.0019
101299.8854
101313.4755
101305.4606
101277.8025
101279.3694
101307.0708
101289.2118
101272.7252
101290.2031
101301.4525
101288.9553
101290.7783
101301.647
101299.9782
101296.6442
101313.5853
101310.92
101285.4938
101309.3262
101311.7848
101295.4033
101295.5076
101304.7994
101300.3455
101292.7313
101291.1994
101283.6979
101281.022
101293.241
101302.4321
101296.0955
101295.5347
101302.4412
101298.015
101292.8888
101326.9039
101323.4103
101285.3223
101300.7256
101316.1078
101301.9939
101273.3113
101286.8817
101320.3724
101315.7719
101285.167
101279.0781
101293.7232
101304.4452
101303.8146
101299.3281
101299.626
101304.3329
101298.0539
101293.2318
101317.7513
101318.8259
101298.0225
101287.3337
101307.8351
101317.0708
101273.29
101268.7715
101323.7151
101331.4232
101285.4209
101276.975
101307.6
101318.5685
101302.0393
101295.3528
101301.117
101307.554
101301.7825
101299.335
101289.4036
101300.9466
101315.6589
101276.0487
101289.3285
101333.5896
101299.279
101265.4981
101305.0863
101325.7676
101293.8771
101286.2486
101316.5007
101321.9188
101297.7156
101290.2669
101301.2665
101309.8678
101306.9372
101305.7594
101268.6338
101278.4041
101318.3013
101279.5939
101281.8734
101326.9174
101324.2184
101283.9851
101279.9387
101300.154
101302.2245
101302.0736
101317.6744
101312.7909
101295.1629
101291.7256
101301.4277
101308.41
101307.0976
101306.3912
101277.6721
101277.0362
101304.0659
101299.0215
101289.6451
101299.8265
101325.1766
101311.3005
101271.6325
101276.6354
101309.05
101319.3686
101308.8943
101295.1139
101297.3352
101302.6284
101304.3617
101303.398
101299.1991
101300.6266
101305.8568
101301.1569
101292.8852
101321.2009
101301.278
101266.2682
101306.5186
101330.3399
101285.2579
101269.9508
101313.5501
101332.1307
101297.9659
101278.6699
101301.8915
101315.1541
101306.6184
101298.409
101289.0524
101292.8459
101329.7813
101315.8745
101288.1126
101338.9163
101309.8027
101247.0137
101281.372
101336.8436
101310.2921
101279.7673
101312.3382
101333.0095
101294.592
101275.2341
101302.2503
101318.6099
101309.1223
101297.9315
101286.3516
101289.9516
101324.0354
101305.9031
101292.1203
101316.4896
101305.3548
101282.6147
101290.1122
101314.5472
101307.6648
101293.5637
101306.5152
101313.9599
101296.7012
101286.2998
101299.9062
101310.7309
101306.8768
101299.0097
101291.2098
101295.2762
101295.4449
101304.5385
101301.3826
101291.2805
101364.416
101338.8839
101276.634
101315.6469
101324.8608
101257.9582
101249.5749
101295.5076
101283.9751
101236.1786
101212.9208
101248.332
101301.761
101310.2701
101287.7861
101284.8395
101305.0047
101314.7015
101317.6787
101330.5397
101325.8563
101321.9911
101297.8038
101309.8149
101321.6267
101285.2877
101258.5588
101274.3874
101279.74
101258.9522
101239.6845
101255.3868
101279.4751
101291.9389
101285.2945
101287.46
101311.8719
101321.0227
101322.3543
101350.0381
101308.4079
101317.8815
101322.2139
101304.9298
101313.9018