/*--------------------------------*- C++ -*----------------------------------*\
| =========                 |                                                 |
| \\      /  F ield         | OpenFOAM: The Open Source CFD Toolbox           |
|  \\    /   O peration     | Version:  5.x                                   |
|   \\  /    A nd           | Web:      www.OpenFOAM.org                      |
|    \\/     M anipulation  |                                                 |
\*---------------------------------------------------------------------------*/
FoamFile
{
    version     2.0;
    format      ascii;
    class       surfaceScalarField;
    location    "6.8";
    object      phi;
}
// * * * * * * * * * * * * * * * * * * * * * * * * * * * * * * * * * * * * * //

dimensions      [1 0 -1 0 0 0 0];

internalField   nonuniform List<scalar> 
91025
(
-0.8280974565
0.1333806066
-0.01679413211
-0.7517255811
0.09765991659
0.2853053751
-0.484862544
0.2431588772
0.0912277363
-0.3973684445
0.05387992883
0.3077809254
-0.2585484986
0.01686138238
0.2627395823
-0.03583650889
0.002754404886
0.4642133816
0.169116085
0.07534348468
0.3255004975
0.2460831057
-0.05709952177
0.3554600569
0.3640399046
0.07845276697
0.3651916576
0.6362249074
0.1185461523
0.494667553
0.9276565458
0.02021953267
0.3535744137
0.9758770785
-0.2938657384
0.1626010026
0.7587482141
-0.4378312203
0.01522790143
0.5329911706
-0.3493840724
0.03591106195
0.3948801438
-0.03833478088
0.09485665122
0.2942556121
0.07675990685
0.07457529174
-0.004699123107
0.02103188091
-0.0202572546
-0.4344123845
-0.2309272879
-0.1587628792
-0.9925184284
-0.3753042929
-0.208573134
-0.3050534199
-0.1456074307
-0.7843235786
0.2127465708
-0.0515010359
-0.7305086709
0.1486720212
0.233025571
-0.5363525133
0.3985604525
0.1195861432
-0.4742811693
0.1383716846
0.3584499681
-0.2502603293
0.2246060245
0.2926261313
-0.01371985648
0.1633816518
0.4710351408
0.1847974852
0.2129302968
0.3322994979
0.2860128257
-0.1159986279
0.3616063124
0.3869847996
-0.005288246172
0.3279685794
0.5617094266
-0.02267723562
0.4234971287
0.7759050887
-0.1075085483
0.3192127968
0.8884587376
-0.5142244992
0.2016495035
0.8218555096
-0.6724302757
0.06263027701
0.670364232
-0.5915844008
0.03995816669
0.4654650663
-0.2158873974
0.03911527428
0.2459412999
-0.09473848075
0.005919046174
-0.1196181351
-0.1240949974
-0.04382752552
-0.5026307711
-0.4443863571
-0.1155494705
-0.9117268501
-0.5759297874
-0.1175216077
-0.4581938607
-0.07948077676
-0.7123874159
0.224155679
-0.1033828363
-0.6735086233
0.1275672472
0.158007576
-0.5703382294
0.4605324603
0.119649574
-0.5106339328
0.1930013667
0.3816370259
-0.2483159963
0.5123350654
0.2804044686
-0.0486878398
0.3633240271
0.448923725
0.1277990597
0.3814655252
0.342182715
0.2713740374
-0.1305878012
0.4006271388
0.399527829
-0.1533045191
0.3022039904
0.4936875138
-0.3242190744
0.3485636214
0.6227817328
-0.3235757883
0.2708060614
0.7776341081
-0.6428445136
0.2610216749
0.8788697551
-0.6814750728
0.1328713093
0.8264883772
-0.7096299139
0.05945208566
0.55606627
-0.453388912
-0.01526508776
0.1954886083
-0.4748968782
-0.06855664507
-0.241459507
-0.3937066775
-0.07643692039
-0.5703943486
-0.598076525
-0.06313964143
-0.7967423475
-0.5469076771
-0.005907985427
-0.4274132755
0.005657577338
-0.6277722713
0.2083455033
-0.1304121203
-0.6283479681
0.05213741813
0.1133202231
-0.549967557
0.4593743953
0.0948633961
-0.4742413674
0.1873387606
0.364893343
-0.241085274
0.7009944272
0.2317376939
-0.1385518071
0.390186792
0.3853405117
-0.0259615194
0.4693790551
0.3484701901
0.1634654121
-0.09271315233
0.4591000564
0.3497868697
-0.1719768471
0.3192500618
0.4451448174
-0.553482167
0.3039111934
0.5391212783
-0.4947510064
0.2325386313
0.7206737069
-0.6912357221
0.30586677
0.90093923
-0.5775051652
0.1933256832
0.8970001416
-0.754087684
0.08625424918
0.5947620289
-0.6528172629
-0.03744790058
0.1866997379
-0.842274026
-0.1076057435
-0.2806680802
-0.6260108937
-0.09035139183
-0.5678319183
-0.6500712315
-0.03017118725
-0.6539672566
-0.3417150205
0.07471788261
-0.2508706061
0.06972976082
-0.5584619818
0.2096049171
-0.1183601219
-0.5943547482
-0.08204232357
0.1233349512
-0.5014486736
0.4022990988
0.05313248897
-0.412622386
0.07648204708
0.325042893
-0.2459598344
0.6646089073
0.1796381212
-0.2316819442
0.1681693502
0.3311692487
-0.1724668117
0.4368063463
0.3310900036
0.02680481972
-0.03701953851
0.5046860614
0.2600772211
-0.008802785672
0.3475981487
0.4067607703
-0.5792300798
0.3181161757
0.5217476051
-0.5131457455
0.2093102236
0.69968976
-0.703355515
0.328951461
0.8720045928
-0.4769090704
0.2161718262
0.8686045788
-0.774359063
0.1140287552
0.5811286199
-0.7089701544
-0.02329063713
0.2189039035
-1.01861043
-0.08692745175
-0.2151559673
-0.712477957
-0.08132111587
-0.480038619
-0.6385040732
-0.0212655191
-0.5334811953
-0.1155659508
0.0893682314
-0.06949136433
0.08310106162
-0.5036658851
0.248446172
-0.06816065181
-0.5756337353
-0.2550667217
0.1739795554
-0.4346415665
0.3116806906
0.03842050754
-0.3467150439
-0.1109682665
0.284495284
-0.2709372335
0.4362979158
0.1542324222
-0.3032195143
-0.1936415302
0.2970810826
-0.2690745959
0.2938202846
0.3020489179
-0.1193820446
-0.04087577874
0.4850256874
0.1079924368
0.2116112719
0.3565512366
0.3136517141
-0.4790943281
0.3448101814
0.5247635403
-0.3882089464
0.1905327325
0.705976338
-0.673382369
0.3126729839
0.8235442906
-0.3769702982
0.2026415665
0.8009445932
-0.7369998514
0.1286554633
0.5532839327
-0.6209322374
0.0206658201
0.2768263694
-0.9850709855
-0.020172133
-0.07767350806
-0.6633848813
-0.03826387533
-0.3271841463
-0.6072945402
-0.01731445952
-0.4448444208
-0.001265424343
0.0469400714
0.003185585328
0.04720110112
-0.5045122865
0.3110300937
-0.02836623311
-0.5656144275
-0.4302029437
0.2307843425
-0.4056421576
0.2752121879
0.03293582998
-0.3269927372
-0.3143943483
0.2523123088
-0.3024829507
0.1843765308
0.1275436567
-0.2951512275
-0.5488073629
0.2919482791
-0.2391731491
0.1048502005
0.2464489627
-0.1687752687
-0.2250839102
0.4227340247
-0.02282583032
0.2831273626
0.3403423087
0.2152517598
-0.4264279265
0.3910089727
0.5011790829
-0.2048622281
0.2037459838
0.6954437533
-0.586844264
0.3130192541
0.7646509824
-0.2070880755
0.1838177625
0.7267219727
-0.6093263083
0.1435448885
0.5217236527
-0.4481037724
0.05925500727
0.3278425849
-0.8990455865
0.05740011578
0.05607676531
-0.5653514956
0.02184426347
-0.1713625689
-0.579906064
-0.004991104754
-0.3601469885
0.02691517107
0.003545592014
-0.01424394012
-0.001347514254
-0.5180493393
0.3959310818
-0.01918880155
-0.5399313512
-0.4912764179
0.2374109351
-0.3918724449
0.3153597363
0.04135577514
-0.36437644
-0.4749616687
0.2225288768
-0.3382377633
0.06171510066
0.1216142574
-0.259964826
-0.7325015099
0.3021424008
-0.1732401273
-0.05201262359
0.2098966557
-0.1752788324
-0.5252545341
0.3311190021
-0.1422225562
0.1561376059
0.2886400936
0.1060332485
-0.4724382528
0.3940616623
0.4784057737
0.006824448813
0.1833545137
0.69918535
-0.435806346
0.3000151034
0.736840613
0.07773746838
0.1633239761
0.6652534444
-0.3765312626
0.1453703539
0.4772236522
-0.2392020755
0.08989853122
0.3569777098
-0.8322230365
0.119267984
0.1622482056
-0.4751055747
0.08544436839
-0.01808860402
-0.5404727025
0.02031087873
-0.2814879537
0.06611802836
-0.02473413326
-0.05916717931
-0.03970806631
-0.5618114527
0.4789368088
-0.05890677906
-0.550158128
-0.4768076129
0.1811454455
-0.4415040005
0.354154157
0.02402947281
-0.4539318066
-0.6294443628
0.2041452671
-0.383854701
0.0371991179
0.1144253951
-0.2432413841
-0.7481759105
0.3272769273
-0.1000148828
-0.07558369424
0.2135693456
-0.1184975734
-0.7617956882
0.2916118331
-0.1287717263
-0.009225209643
0.240676396
0.107046331
-0.5371483654
0.401348066
0.483190461
0.1694835934
0.2732804787
0.7099690661
-0.3057155815
0.319553242
0.7061549288
0.3425229762
0.1725945057
0.549319139
-0.1696961475
0.15691072
0.3883640882
-0.05009091777
0.1249367807
0.3613388921
-0.7367605199
0.1756332308
0.2608014556
-0.3685228221
0.1322901145
0.1070516677
-0.4791488778
0.04031799236
-0.2140802324
0.1220797315
-0.04067132839
-0.1214591999
-0.06631830707
-0.5513499862
0.5356537792
-0.1070142185
-0.52989666
-0.4868266223
0.09876754501
-0.5002208667
0.2854766284
0.01515575641
-0.5223442781
-0.7989312185
0.2083767461
-0.4182251054
0.06057282708
0.1329227945
-0.2694183478
-0.6993919423
0.3452882901
-0.1083972066
0.08311432527
0.2637412484
-0.1003696977
-0.764289435
0.2932266243
-0.08145810504
0.00797995161
0.2050359232
0.1530340324
-0.4843288847
0.3625071159
0.5306207453
0.3354548319
0.2810936405
0.7679482056
-0.2279868874
0.3017134906
0.6908479937
0.4612520994
0.1554486665
0.4242730557
-0.09972651763
0.1507057626
0.2637260057
0.1177324906
0.1743043948
0.3496348179
-0.5220848147
0.2320280095
0.3651890568
-0.1537214314
0.1708515479
0.2098317908
-0.3950358273
0.04794899449
-0.1766528679
0.1181681289
-0.0571212601
-0.2115337082
-0.08343688521
-0.6029812655
0.5381592982
-0.1287894305
-0.620532935
-0.5986382731
0.05593252161
-0.589795948
0.2066705464
0.0158758223
-0.5569358954
-0.9234518003
0.2369454297
-0.4070241425
0.1233862386
0.1354620163
-0.2727586355
-0.6539039082
0.3193627425
-0.1309735045
0.3494699015
0.291150279
-0.06260550818
-0.5709037872
0.3215003284
0.02367380368
0.2679283738
0.213772968
0.2593984989
-0.2832093884
0.3485197851
0.5930640386
0.5568768845
0.3042962426
0.8129207873
-0.1832613886
0.3017804403
0.6694429048
0.3746711087
0.1491546757
0.3183319985
-0.2183760959
0.1580252061
0.1510187701
0.2955410444
0.2289742712
0.3301961393
-0.1663373649
0.2871542858
0.445665416
0.1849145573
0.1946115563
0.2906185184
-0.342732305
0.03658342475
-0.1448747147
0.003977388362
-0.08080027053
-0.3526309751
-0.09368277773
-0.6265116912
0.5035964224
-0.1003474918
-0.6862295958
-0.7517421731
0.0704928722
-0.6103732186
0.251949008
0.04328071218
-0.5152201642
-0.8420978478
0.274096871
-0.3262953078
0.291466699
0.1460462196
-0.2200809301
-0.5972585104
0.2571782912
-0.1510981293
0.5307805126
0.2621358269
-0.05725788904
-0.3422816448
0.3251311754
0.08075128235
0.6196489978
0.2525141361
0.3023730695
-0.003405762846
0.3367693356
0.5835045484
0.8525867212
0.3049486078
0.7814310955
-0.09304058891
0.2990652566
0.6498896112
0.2340214924
0.1679177215
0.3174275047
-0.4143033537
0.1678973531
0.1319173467
0.4583278624
0.2611322738
0.2822588991
0.1957539545
0.301534619
0.4002757114
0.5120340533
0.1949278793
0.2689191694
-0.3376169446
0.03211587918
-0.1193081785
-0.1809658393
-0.0801082166
-0.5077798852
-0.08288913763
-0.7334544028
0.483813352
-0.05716780224
-0.7885473877
-0.8610581316
0.1020137486
-0.6349608029
0.4647968502
0.04179042558
-0.4872780102
-0.5677708351
0.2600002376
-0.2645625526
0.5848450249
0.1258412131
-0.1535698562
-0.50284019
0.1817678137
-0.1039691134
0.6058910634
0.1584512237
0.001630716946
-0.2021372004
0.2832661436
0.1608191629
0.905676849
0.2684799175
0.338497101
0.2893947005
0.3204186426
0.505531063
1.165679213
0.2826504451
0.6599184034
0.08091965621
0.3120763901
0.6537111093
0.2377610826
0.2190173686
0.4477811679
-0.5155158436
0.1993229432
0.2336025344
0.5360003063
0.2319893784
0.227647021
0.3759697217
0.2453866929
0.2396465216
0.6777761574
0.1594519038
0.1639315163
-0.3556241178
0.04597191646
-0.04779469795
-0.2956468319
-0.03118146588
-0.5981391277
-0.04198045821
-0.7435034167
0.5186859341
-0.0222698524
-0.7254957171
-0.8187750959
0.132288752
-0.5519887438
0.752094234
0.03697781763
-0.4339181474
-0.2436095676
0.2153845345
-0.2502747592
0.9326791698
0.140281959
-0.1111880917
-0.3158981016
0.1694444947
-0.02306727041
0.7093151639
0.1112495213
0.08704980458
-0.1075356681
0.2270328739
0.2384383335
1.084594567
0.256387427
0.3237224976
0.4406916992
0.2729968476
0.3432397338
1.348310549
0.2420657101
0.4486847143
0.2943155053
0.3178571374
0.6033329014
0.4745645107
0.3141311495
0.614901201
-0.4182172725
0.2491585635
0.3834688913
0.4719311156
0.1733922566
0.1343472176
0.2163250549
0.1315519203
-0.013495984
0.5890513194
0.106063738
-0.01895538955
-0.3530847231
0.08932704762
0.02289972131
-0.2087349302
0.06695511434
-0.5359506499
0.03000905623
-0.791069355
0.6155897065
-0.01903710616
-0.6532249355
-0.6563081946
0.1159369065
-0.4961359718
1.015392738
0.006967218579
-0.4399713627
-0.05130468652
0.1266640517
-0.3204823137
1.247951319
0.125435309
-0.1272584363
-0.02531376807
0.1823462709
0.0720079578
1.001102004
0.08217695155
0.2382200554
0.06794397559
0.1497074496
0.3667472805
1.221075962
0.1671176915
0.3486237495
0.4263990166
0.1788084733
0.2215092051
1.29948513
0.1696611335
0.2505332187
0.4258732647
0.3030263135
0.5192144626
0.8886194317
0.3780747407
0.7370369408
-0.132340751
0.2998425712
0.5236527942
0.3335578475
0.1115468451
0.08122998156
-0.2009642088
0.02331297413
-0.2105458628
0.3233338944
0.04684278117
-0.1477743458
-0.2857941318
0.1269150159
0.115434872
0.09112391375
0.1680582286
-0.3263924692
0.09751668775
-0.6830815297
0.7630296805
-0.02260483078
-0.4688662666
-0.4253038794
0.1023062383
-0.3546464023
1.182659104
-0.0006056163577
-0.3844917766
0.01319457599
0.07204565793
-0.3383045961
1.463248845
0.1224599331
-0.1489083779
0.3350714015
0.2353953276
0.1152129187
1.458621215
0.1348233489
0.3248345498
0.3679433763
0.1315926865
0.4145298664
1.349582068
0.1064941637
0.3394986621
0.3279439787
0.1156413421
0.1485602282
1.100120203
0.1351478644
0.1095622832
0.3867634472
0.2611940881
0.3551656037
1.201970468
0.386455031
0.6277777246
0.1513523275
0.3220830452
0.4952133719
0.243566766
0.1193557135
0.05576821619
-0.5862140142
-0.003253329324
-0.2696082042
0.07996388875
0.02517093443
-0.2018653547
-0.1899306283
0.1372633946
0.1251415575
0.4506886127
0.2052669514
-0.1032184097
0.1212309266
-0.6351186661
0.9181647163
-0.01132544913
-0.4093292974
-0.2151578872
0.08197516484
-0.3115365977
1.303305699
-0.01320487631
-0.3401897869
0.07795758442
0.02035428007
-0.3124884964
1.619895917
0.04969402883
-0.1621724049
0.6275855223
0.1892267878
0.1003422737
1.896884568
0.1434780167
0.3234363208
0.7028731147
0.09993271235
0.3995073744
1.522987942
0.04419033247
0.3354118433
0.3062839599
0.06558280697
0.2097045758
0.9701672774
0.09642864616
0.1313225211
0.2704556044
0.1754563006
0.2156860795
1.235962208
0.2716285316
0.390571646
0.295903563
0.2843886152
0.3823942672
0.3341992747
0.1698596901
0.1206804425
-0.6563564221
0.03740317428
-0.125725632
0.03602027129
0.0265691602
-0.1071342771
-0.125823616
0.09737553137
0.101032631
0.6235382457
0.1525299552
-0.006048408977
0.08745889554
-0.4363682992
1.026604256
0.0132279135
-0.2777020727
-0.09781739781
0.09548200573
-0.1960559684
1.451954611
0.01227774656
-0.1937005052
0.2218313144
0.031266867
-0.174676568
1.758603896
0.006060342752
-0.1070708029
0.7779623168
0.1342054734
0.04701416517
2.124797302
0.1574721764
0.1983549913
0.8871992107
0.1118016163
0.2522506148
1.680485656
0.06540248445
0.2373287302
0.4193976774
0.1010395731
0.2301972956
1.045943244
0.1147802892
0.1681383235
0.2174151711
0.1156790817
0.07921643665
1.034955473
0.1436309187
0.1065336738
0.2511402425
0.2117296129
0.177308267
0.5570123284
0.2174009955
0.1428605583
-0.4085447741
0.1109938664
0.03410283696
0.1796338625
0.046192647
-0.01183179107
-0.1638431452
0.04163238311
0.01058735279
0.5047555316
0.05548963372
-0.08992090538
0.02919660837
-0.3326585789
1.05264443
0.03411690743
-0.2599769959
-0.05093026423
0.0677511496
-0.1758178486
1.618192329
0.01266485406
-0.1085100237
0.433950237
0.008983296232
-0.06452672299
1.889594503
-0.053353038
-0.05422207653
0.778109115
0.01249390801
-0.005868083613
2.099791397
0.07605419206
0.06764463552
0.9182192053
0.06550920766
0.1149210114
1.806465827
0.04568301028
0.1569674185
0.6714980045
0.08122243189
0.2281386724
1.336746274
0.07790751204
0.2275256873
0.2872764386
0.03324951929
0.07304027437
0.817441285
0.01307506187
-0.01938237197
0.06273790261
0.09179378314
0.04941949684
0.732161198
0.1695872636
0.1504606836
-0.0410166655
0.1268764694
0.1408960883
0.3678749796
0.0405115942
0.06211582091
-0.2635218457
-0.007119429795
-0.02204416393
0.2638532138
-0.02426937487
-0.262738995
-0.01759489802
-0.07451465972
0.02846244152
-0.03766383767
0.04285960358
-0.00648836544
0.0160259338
-0.001293643357
0.006116292155
0.01718161489
-0.02324352128
-0.01077927558
0.02391163644
-0.04161909195
0.03952115474
-0.008969059863
0.05197118661
0.005085736257
0.04432706353
0.04247250562
0.05082725664
0.1122976536
0.05238901024
0.0913564171
0.002418865769
-0.008435566001
-0.01744100075
-0.07184043505
0.03098175922
-0.04084370157
0.08386819557
0.05501374294
0.07645960462
0.07913555275
0.02649393247
0.03020211666
-0.01408903752
-0.04654571784
-0.03521833094
-0.01548952528
-0.6295996612
-0.004568103761
-0.09644540661
-0.7083424338
-0.112895938
0.4499382703
-0.3988754941
0.3040786263
0.2227275295
-0.2408367512
0.1943217496
0.6890252257
-0.1546201939
0.04541685423
0.4913058562
-0.06869263428
-0.01821712908
0.8514460632
0.1363583283
0.1049508026
0.7110737022
0.3546726512
-0.01416813627
0.7515662011
0.4362297695
-0.04059589015
0.625878281
0.4647888244
-0.09506323618
0.7648035813
0.5729277563
-0.07647027316
0.6204759621
0.7364153
-0.1389701422
0.4107401494
0.7693000292
-0.2486495998
0.1204176949
0.6415688425
-0.3253469875
-0.01250851383
0.3666423541
-0.2306080828
0.02729636901
0.09833895865
-0.1580872486
0.02431773685
-0.2541643979
-0.07394824316
-0.05723990709
-0.5578853638
-0.08892464711
-0.235693372
-0.813681218
-0.03530997027
-0.2712591966
-0.03865502578
-0.1739710727
-0.6172508504
0.02606790714
-0.122734875
-0.6002749862
-0.132444296
0.4260323283
-0.3968880851
0.40884367
0.2489419839
-0.3316089119
0.2398364246
0.7467040505
-0.1809917363
0.1694758703
0.547080871
-0.0511687706
0.07097273398
0.8853507925
0.1397591609
0.2694982884
0.7199990791
0.3364127436
0.01771789185
0.7621800732
0.4289107724
-0.1163719559
0.603234253
0.4502927771
-0.2916100955
0.6870546096
0.5291988831
-0.2597063956
0.552632615
0.6688564027
-0.2902280786
0.4236876511
0.7452345061
-0.4038155749
0.1698681611
0.6743785127
-0.5354665661
0.02365695475
0.4176280641
-0.4373231099
-0.009591150273
0.1277482629
-0.387350358
-0.06129693084
-0.2404148973
-0.2616138331
-0.1121792802
-0.5453819617
-0.2531439732
-0.2021451531
-0.8079338057
-0.1038653564
-0.1714913116
-0.08510820031
-0.1027810925
-0.5938779624
0.1174340521
-0.1594808669
-0.4732544915
-0.04391055636
0.3901937063
-0.3838677172
0.3887473233
0.2322834107
-0.3989072226
0.1686129651
0.7474706206
-0.1969208919
0.3525870016
0.544967574
-0.0449764532
0.1835233952
0.864593987
0.08643614565
0.4271543592
0.6956931632
0.2385722333
0.06678433212
0.8109735936
0.370231735
-0.1471316461
0.607382001
0.4435367931
-0.4795360332
0.6129961945
0.52067455
-0.4601619038
0.4379008893
0.6154261186
-0.4490960477
0.4447184077
0.7085406657
-0.470403503
0.2370300695
0.6915718857
-0.6268429825
0.0958565494
0.4642909553
-0.5634192252
-0.04141575082
0.1717482599
-0.6263182337
-0.1605332543
-0.200652935
-0.4776925116
-0.1715325133
-0.4987489694
-0.4606126667
-0.1470651631
-0.7604961459
-0.1865219051
-0.0451703011
-0.12841489
-0.00724179247
-0.546077219
0.2621817157
-0.1739620176
-0.4028002097
0.08988384515
0.3649892335
-0.3502905571
0.352002472
0.1742162591
-0.3878992062
0.06830777671
0.6788518035
-0.1785652886
0.5190866724
0.4875047794
-0.04690025431
0.2041016169
0.7745152031
-0.01288195766
0.4521183899
0.6586450437
0.08732479036
0.05967082147
0.8704503217
0.2428483484
-0.1005205267
0.6842489648
0.4157997932
-0.5463010121
0.6071390929
0.5352561671
-0.5816957861
0.3628139064
0.5889970308
-0.5992396327
0.4500722561
0.6604377885
-0.5052840655
0.3028942555
0.6690816241
-0.6711990407
0.171109569
0.4717903893
-0.6033589007
-0.03101824259
0.2021772466
-0.7695342125
-0.1984942457
-0.1456729913
-0.5998961667
-0.1837384072
-0.4204101558
-0.6048069169
-0.09475054639
-0.6734066347
-0.2534316556
0.05005198723
-0.1688189656
0.05976097419
-0.4899686545
0.3873994406
-0.161847776
-0.4173692316
0.1172118322
0.3722527746
-0.3377199738
0.3296943725
0.09531375529
-0.3488951245
-0.07621743707
0.5969784449
-0.1813680854
0.530040536
0.4083314357
-0.07681347315
0.04097958109
0.7040441351
-0.1045396575
0.3317379035
0.586494527
-0.07077018898
-0.04125690734
0.8951785349
0.1029183635
0.03878880284
0.7274872366
0.3571688835
-0.4542728295
0.6612072273
0.5613495938
-0.5356508464
0.2885032438
0.6009613035
-0.6942770232
0.464053032
0.6280631299
-0.5145145598
0.3107716107
0.6394298119
-0.7060826802
0.2377768609
0.4638866765
-0.55085959
0.003570073144
0.2295326363
-0.7611276911
-0.1519607499
-0.07487617365
-0.5542581704
-0.1467936691
-0.3149632861
-0.6340947707
-0.06337145626
-0.5589700633
-0.2599999049
0.06643229685
-0.203168797
0.06537427362
-0.4019038693
0.4143197286
-0.1271944466
-0.4603375542
-0.05612385543
0.3944251217
-0.3248871753
0.2823276025
0.07248222887
-0.2858413235
-0.2553403334
0.5382927602
-0.1875475526
0.349526319
0.362538678
-0.1168108878
-0.2312528085
0.6598660701
-0.1547291796
0.1170791783
0.5315414371
-0.1685241849
-0.2346985077
0.8262767045
-0.02871519903
0.1717205295
0.7198215452
0.2391154663
-0.3288270067
0.707490751
0.524564742
-0.3619784236
0.2523434102
0.6037299373
-0.6883514414
0.4381317401
0.6101810551
-0.4493735197
0.2900798566
0.6227420813
-0.6747378015
0.2518918364
0.4576127529
-0.4451425758
0.05830933992
0.2437881892
-0.6848509997
-0.05123903084
-0.02148940051
-0.4234832869
-0.06368504481
-0.2308481692
-0.576658606
-0.03917945996
-0.450666289
-0.2132033429
0.01837270114
-0.2207185411
0.01671092676
-0.370720669
0.3476624899
-0.1103403995
-0.5266090021
-0.3826343071
0.4158402769
-0.361445632
0.2521093734
0.07549088808
-0.2758952387
-0.4360094885
0.5136550751
-0.2162648703
0.1473400936
0.305133149
-0.1532381942
-0.5026791154
0.6578020731
-0.140883867
-0.04229584759
0.4634132323
-0.1545456273
-0.4892724584
0.7014718246
-0.1087467304
0.1572983114
0.6155680203
0.1236827642
-0.3167505167
0.7513927945
0.4707810579
-0.1230649591
0.2008890516
0.5979163033
-0.5813439843
0.473176381
0.6201707548
-0.2515494745
0.2488345334
0.6308043952
-0.5496709612
0.2673273259
0.4684046065
-0.2837562284
0.09704910778
0.2695762622
-0.6308770417
0.06272751177
0.01870429971
-0.3043468043
0.02939490881
-0.1642831493
-0.5032876797
-0.008226569036
-0.352611616
-0.1237902948
-0.02908136677
-0.2121946384
-0.04011032875
-0.3687497606
0.2799645883
-0.11215289
-0.5261651991
-0.6695584407
0.387921732
-0.3739006274
0.271910285
0.1137795681
-0.2901203133
-0.5402274629
0.4960117041
-0.2290105331
0.07203913669
0.286393922
-0.1691676994
-0.6355188455
0.6719084177
-0.1015357657
-0.06409651117
0.4438863288
-0.09473111738
-0.6959315165
0.572723412
-0.1296939978
-0.004902115566
0.4847402242
0.03098508647
-0.448303738
0.7287933031
0.3884595376
0.1208240802
0.1407081127
0.5766118399
-0.4272487097
0.4682569035
0.6172397414
0.04372087982
0.2328537305
0.6146440215
-0.3311012088
0.2550445816
0.4578915902
-0.07331994207
0.1276767668
0.2809695472
-0.5956902886
0.1417915851
0.04609415227
-0.2580201833
0.1158248982
-0.1135901065
-0.4632210647
0.03484846693
-0.2803238
-0.03085996231
-0.04980038585
-0.1999970065
-0.07611471763
-0.4647402565
0.3092230302
-0.1623340067
-0.5100382273
-0.7508623281
0.3189310868
-0.4067620522
0.3216360184
0.08726321014
-0.3537219699
-0.592058483
0.4740631172
-0.2662338165
0.08580966037
0.25852404
-0.2002884798
-0.6923942044
0.6779110069
-0.1044907371
0.0356465078
0.46235792
-0.05074068324
-0.7786358662
0.5539209887
-0.06006956492
-0.1271688151
0.393206998
0.06837915837
-0.5945755998
0.7173893842
0.3815366986
0.2660287152
0.3157132172
0.5778590208
-0.3294046052
0.5579293062
0.6227076752
0.3079014766
0.2660402987
0.5675933085
-0.1515499882
0.2776254938
0.4096021917
0.1535345578
0.1681770528
0.2837928911
-0.5105083562
0.2115962005
0.09270219776
-0.2030999277
0.173896501
-0.04187241776
-0.4594301522
0.06824469667
-0.2126950895
0.04497412427
-0.04828085332
-0.2112687252
-0.0923624147
-0.4962497429
0.4356271036
-0.1987970577
-0.4337450145
-0.6671876843
0.2252380804
-0.3928596112
0.3308532381
0.05058720655
-0.388001279
-0.6789740798
0.4576047893
-0.2799843778
0.09471964194
0.2763228298
-0.2154761758
-0.7710489792
0.6561359057
-0.1494863639
0.1670059915
0.5341192765
-0.06274096111
-0.701621594
0.5910060141
0.0119960525
0.00138668835
0.3753436848
0.1624563493
-0.5623430104
0.6103257143
0.4088355041
0.382171282
0.3997761558
0.5971486089
-0.2667816022
0.5333756054
0.6244791119
0.4323080492
0.2767440039
0.4936226563
-0.09239788124
0.2599976748
0.2955924693
0.3294021979
0.2316011636
0.2257352547
-0.3356150709
0.2883512703
0.1317543062
-0.05448706128
0.2281490115
0.02036500201
-0.4367751213
0.08642119609
-0.1721187534
0.05472118597
-0.05405360815
-0.2590158198
-0.09730700433
-0.5739185893
0.5865454422
-0.1976757607
-0.4719698333
-0.5993849486
0.1787627651
-0.4357585989
0.2785637708
0.007789680486
-0.4533554096
-0.8082871969
0.4652318394
-0.305804537
0.1118773758
0.2710792873
-0.1931536876
-0.8786447533
0.5796022567
-0.1793382064
0.2338219954
0.541606569
-0.07383243692
-0.5728336704
0.6444551514
0.09943645716
0.3392670943
0.4071194184
0.2756271044
-0.3698109074
0.5826885177
0.4828053042
0.5729094217
0.4185972008
0.6443687964
-0.1883801175
0.529260726
0.6600270986
0.4565622004
0.2715121482
0.4650970589
-0.1932567377
0.2696031547
0.2070441366
0.4035470617
0.3067654434
0.1651063833
-0.1482767047
0.3730864613
0.1529190986
0.1857478012
0.2679066511
0.07711441101
-0.3760443753
0.08045031924
-0.1167019945
0.03669987002
-0.07116092898
-0.3234424742
-0.1041536371
-0.5724000789
0.6444389394
-0.136859437
-0.5153538427
-0.6574932899
0.2019469495
-0.4556942297
0.2651718328
0.0351395927
-0.4627568003
-0.8659257825
0.4973422048
-0.282784564
0.2569469215
0.3047777529
-0.1259607535
-0.8506119874
0.5050809081
-0.119444013
0.2592587374
0.4718956135
-0.03899590846
-0.4732903279
0.620909041
0.1362994355
0.6476982815
0.4924652651
0.3152879938
-0.1422637267
0.5713614722
0.4766154154
0.7876923457
0.453308387
0.6170605409
-0.05862970959
0.5044323273
0.6381186092
0.4750965235
0.3237278605
0.4540930669
-0.3251532254
0.2883249831
0.1662026649
0.3677173989
0.3597444317
0.09235167819
-0.04073869226
0.4046649436
0.08846137373
0.3932553696
0.2798895909
0.04906118291
-0.2916642712
0.08008664166
-0.08891997835
0.04125358847
-0.07184436982
-0.3572531787
-0.09370241777
-0.6698516801
0.6124186213
-0.07773927643
-0.6591509445
-0.7777350221
0.245419896
-0.5204362083
0.3990028954
0.04957391572
-0.4846654866
-0.7445639822
0.4570752248
-0.2937431187
0.5782016077
0.273413663
-0.0804058422
-0.6193330103
0.4198566132
-0.009817887331
0.3604043273
0.2884887622
0.05972437181
-0.4382176429
0.5033509391
0.1881577669
0.7959714227
0.5196152002
0.3400482714
0.02120089528
0.5773451017
0.4679973354
0.9901437397
0.4219784111
0.5637190575
0.1135938662
0.5044108611
0.6145557864
0.6081963902
0.3987352889
0.5073126989
-0.3535504609
0.3514079408
0.2385402785
0.3046805848
0.3374997967
0.0806388762
-0.07619810721
0.3371728467
0.01923338371
0.4735094543
0.2389498671
0.006273814275
-0.2257242173
0.09907369208
-0.04378071203
0.1071695459
-0.01330184113
-0.3363774804
-0.04634242049
-0.6643539647
0.5796972463
-0.04537563448
-0.6469958955
-0.821704742
0.2824437134
-0.4585654832
0.6463426945
0.08656723118
-0.3995162435
-0.5181472511
0.3770149989
-0.2847550318
0.9299544392
0.273673185
-0.08294934829
-0.2574351694
0.4192839958
0.08326719089
0.6242776072
0.2395434947
0.1842656461
-0.3584897272
0.4022925944
0.2527694056
0.8519854651
0.5063161655
0.3449280459
0.1075384811
0.5242979049
0.4164893895
1.096848515
0.3933219608
0.4371935346
0.2433899124
0.497309055
0.4793817717
0.8034622565
0.5256319835
0.4849147785
-0.2329121386
0.4277025208
0.2920380482
0.2735157563
0.2758353171
0.06689244762
-0.2314468323
0.1959417043
-0.07405601531
0.3916996619
0.1737960526
-0.08344202965
-0.2193014925
0.1529574845
-0.04857273158
0.207177207
0.1047941961
-0.2820298606
0.04409415822
-0.7355360323
0.640283251
-0.05901844462
-0.6405337174
-0.691877128
0.2430719118
-0.4365067429
0.9280140802
0.0643321162
-0.3555002145
-0.3085332955
0.2183905967
-0.3250938563
1.170954077
0.1947125633
-0.1631701315
0.07762920742
0.4103834002
0.1004284947
1.077961708
0.2255511698
0.297620481
-0.1029807288
0.2946010707
0.3696845681
0.9836515951
0.3399246052
0.4153209251
0.1563034604
0.3646624455
0.4215150932
1.086136158
0.2793808533
0.3644478928
0.2136693064
0.453767448
0.3687074086
0.925900236
0.5765596342
0.4263953626
-0.0487868924
0.4738182126
0.3438608534
0.3396558411
0.2032262085
0.1164178182
-0.3964782575
0.06035254225
-0.08067543446
0.2241818854
0.09768162377
-0.09652088129
-0.2633956545
0.1968187863
-0.03125453396
0.3000782022
0.2245230131
-0.2283822316
0.1271589032
-0.6262365868
0.8097605485
-0.07305483079
-0.486263436
-0.4502549106
0.1981503526
-0.3128895355
1.168330868
0.06108328141
-0.2397696206
-0.1724196518
0.1530449442
-0.2500562377
1.262494439
0.1675519764
-0.2038761349
0.2848689251
0.4214509354
0.05379130796
1.547016241
0.3266331468
0.3142646132
0.276362852
0.2992453904
0.4225053004
1.216388885
0.2193202193
0.4277267112
0.2127572612
0.2412825079
0.3844716375
0.9935830837
0.2483067673
0.2891481036
0.04274020074
0.3949713875
0.2270114951
0.851900112
0.5533777718
0.273901377
0.052123813
0.4680940146
0.2524015907
0.4384140475
0.2228369683
0.09651147126
-0.4745720844
0.04745388251
-0.06907779954
0.0899937038
0.07607607092
-0.09789259632
-0.3330628253
0.2032808444
-0.05934408975
0.3276946389
0.2567041372
-0.208793798
0.1503427995
-0.6044118705
0.9910834289
-0.04589944013
-0.46218705
-0.2317344927
0.1361331692
-0.32137471
1.367204312
0.0174351576
-0.2139770522
-0.0180253357
0.09083770233
-0.1813947209
1.377313486
0.05784893706
-0.1792066603
0.3970281302
0.2770130504
0.005934716689
1.877078443
0.2961197654
0.2611152427
0.6293122232
0.2435210349
0.410728063
1.490193364
0.08736862627
0.413685177
0.3153506483
0.1259598596
0.3691231637
0.9488109273
0.1963338526
0.3087017027
-0.1160184298
0.2948981212
0.217245667
0.6940788267
0.3607347212
0.1755529594
-0.005580610927
0.3608865179
0.1415159287
0.4890351271
0.2700975505
0.09298726874
-0.4371562882
0.1210604184
0.01600713105
0.09530332478
0.08707715481
-0.01788109509
-0.3716755661
0.1383323451
-0.03960708098
0.2945547075