/*--------------------------------*- C++ -*----------------------------------*\
| =========                 |                                                 |
| \\      /  F ield         | OpenFOAM: The Open Source CFD Toolbox           |
|  \\    /   O peration     | Version:  5.x                                   |
|   \\  /    A nd           | Web:      www.OpenFOAM.org                      |
|    \\/     M anipulation  |                                                 |
\*---------------------------------------------------------------------------*/
FoamFile
{
    version     2.0;
    format      ascii;
    class       volScalarField;
    location    "8.4";
    object      T;
}
// * * * * * * * * * * * * * * * * * * * * * * * * * * * * * * * * * * * * * //

dimensions      [0 0 0 1 0 0 0];

internalField   nonuniform List<scalar> 
30538
(
278.2974918
273.0765818
272.9723732
272.9597954
272.9649848
272.9680171
272.9683215
272.9743584
272.9861667
272.9965326
273.001191
273.0080135
273.0201692
273.0318715
273.037475
273.0408051
273.0381253
273.0303636
272.9982037
271.6729264
278.2955627
273.0665246
272.9683329
272.9583918
272.9599174
272.9609559
272.9616224
272.9675503
272.9773687
272.9880479
272.9961263
273.0049647
273.0140933
273.022083
273.0277623
273.0332448
273.0323533
273.0255064
272.993313
271.6792244
278.2235398
273.0604193
272.9708312
272.9634523
272.9598664
272.9583503
272.9607699
272.9676542
272.9761238
272.9865022
272.9968703
273.0066594
273.0121931
273.0169075
273.0242191
273.0325426
273.0335118
273.0275331
272.9958273
271.6630641
278.2305144
273.0563256
272.9734724
272.9670567
272.9577635
272.9543174
272.9599788
272.96888
272.9770179
272.9866199
272.9968153
273.0051727
273.0076182
273.011825
273.0230593
273.0344339
273.0360103
273.0296085
272.9985092
271.685672
278.0596773
273.0510064
272.9742382
272.9675798
272.955702
272.951792
272.9601358
272.9701491
272.9782943
272.9869347
272.9948997
273.0000918
273.0015902
273.0088905
273.0241837
273.0373106
273.0383755
273.0309716
273.0002204
271.6324849
278.0469147
273.0495102
272.9727663
272.9649465
272.9551262
272.9526274
272.9609166
272.9696594
272.9774162
272.9854113
272.99083
272.9938961
272.9972059
273.0086471
273.0256228
273.0381381
273.0386517
273.0312912
273.0018854
271.671956
277.7580354
273.0454493
272.970055
272.9609704
272.9564442
272.9563807
272.9617807
272.967191
272.9737683
272.9813781
272.985962
272.9897857
272.9968325
273.0107315
273.0256217
273.035431
273.0363528
273.0308535
273.0038157
271.6041097
277.7316437
273.0455176
272.9673506
272.9575552
272.9587218
272.9611714
272.9623951
272.9637219
272.9684422
272.9758517
272.9814427
272.9889171
272.9997872
273.0135003
273.0236436
273.0301797
273.0320388
273.0299265
273.0061971
271.6750179
277.3190339
273.0390886
272.9659197
272.9562888
272.960752
272.9648633
272.9631624
272.9611578
272.9641161
272.9713448
272.9792116
272.9901548
273.0030005
273.0145917
273.0209833
273.0257589
273.0286648
273.0288282
273.0078646
271.6166504
277.2808325
273.0350112
272.9667117
272.9583875
272.9618027
272.9658032
272.9635247
272.9604957
272.9623667
272.9696203
272.9793417
272.9915073
273.0034343
273.0128796
273.0189596
273.0250258
273.0280796
273.0277906
273.0079332
271.7419781
276.7431394
273.0250224
272.9700663
272.9630141
272.9620986
272.9640211
272.9629857
272.9614817
272.9636397
272.9705912
272.9810542
272.9919172
273.0008757
273.0097249
273.0188577
273.0276766
273.0300269
273.0266698
273.0059765
271.7106442
276.7150023
273.0219743
272.9745222
272.9680695
272.9620221
272.9606215
272.9618472
272.9636563
272.9666922
272.9729745
272.982086
272.991495
272.9984898
273.0080407
273.0196743
273.029742
273.0304919
273.0246692
273.0037135
271.8879422
276.0428405
273.0147763
272.9779482
272.9710929
272.9625302
272.9583161
272.9617473
272.9669172
272.9706428
272.9749657
272.9816969
272.9904842
272.9992842
273.0094804
273.0201794
273.0278094
273.0271359
273.0214834
273.0033079
271.8749016
276.0378179
273.0141493
272.9795535
272.9720896
272.9644077
272.9596227
272.9637324
272.9709729
272.9742592
272.9761358
272.9798711
272.9896453
273.0022263
273.0131195
273.0194711
273.0216499
273.0201263
273.0173577
273.0043456
272.1064351
275.2418305
273.0069203
272.9800387
272.9726717
272.9682134
272.9653785
272.9682325
272.9738044
272.9762727
272.9769406
272.9794562
272.9901678
273.0055597
273.0156853
273.017367
273.0146785
273.0125287
273.0130161
273.005446
272.1182549
275.2750313
273.0048038
272.9811385
272.9751925
272.9737363
272.9738379
272.9738131
272.9745961
272.976775
272.9797101
272.9833354
272.9931548
273.0058704
273.0141249
273.0142542
273.0107024
273.0081341
273.0089294
273.0039545
272.3835862
274.3655309
272.9981193
272.9843196
272.9803867
272.9803756
272.9819603
272.9791301
272.9744972
272.9773034
272.9848819
272.9914584
272.9978028
273.0036508
273.0084914
273.0110836
273.0102979
273.0077753
273.0053689
273.000567
272.4161389
274.4590898
272.998687
272.9894556
272.9891065
272.9873045
272.99095
272.9838993
272.9779634
272.9797952
272.990882
273.0003864
273.0037457
273.0007316
273.0027305
273.0077671
273.0105852
273.008781
273.0029301
272.9964684
272.6975065
273.4513871
273.0925579
272.9979433
273.1328417
272.9974921
273.1460008
272.9975356
273.1059848
272.9914213
273.0721475
273.0058354
273.0451759
272.9975662
273.0150852
272.9947718
273.0150471
272.9972825
273.0064359
272.993565
272.7378407
267.0818185
281.8061548
268.5700426
282.9613966
270.3049427
283.0327524
271.4142605
282.0001584
271.714006
280.2311586
271.3027393
278.1215702
270.5241517
276.1960386
269.9440871
275.0089421
269.8833056
274.7261007
270.349457
275.2178507
279.2923328
273.0879239
272.9789167
272.9689395
272.9663525
272.9669432
272.9721223
272.9788985
272.9869906
272.9966437
273.0043157
273.011002
273.0185138
273.0283091
273.0330267
273.0324395
273.029952
273.0286547
272.9986976
271.3049928
279.2988784
273.0812327
272.9715262
272.9624146
272.962035
272.9628475
272.9665128
272.9722812
272.979172
272.9881471
272.9968523
273.0056814
273.0135258
273.0211231
273.0254924
273.0270934
273.0255727
273.0230544
272.9915164
271.2987881
279.2245864
273.0794694
272.971275
272.9628533
272.9630311
272.9632464
272.9659777
272.9715356
272.9780424
272.9863111
272.9953415
273.0058
273.0132621
273.0185901
273.0237063
273.0290505
273.0288288
273.0240973
272.989897
271.2567191
279.2395222
273.0780822
272.9730093
272.9644345
272.9625071
272.9616206
272.9644729
272.9705755
272.9776521
272.9858571
272.9947008
273.0047226
273.010754
273.0149593
273.022494
273.032067
273.0329845
273.025313
272.9886379
271.251913
279.0503525
273.0713015
272.9738771
272.9654035
272.9610297
272.9599966
272.9634237
272.9693826
272.977359
272.9861927
272.9943058
273.0020707
273.0064289
273.0119178
273.0224322
273.0346328
273.0357692
273.0261623
272.9885191
271.1741136
279.0378782
273.0654404
272.9730177
272.9649582
272.9596655
272.9595315
272.9631039
272.9678322
272.9758802
272.9856047
272.9929927
272.9984199
273.0025595
273.0108099
273.0229081
273.0346164
273.0352832
273.0262117
272.990328
271.1889194
278.7118694
273.0569899
272.9714866
272.9636742
272.9598965
272.9608116
272.9633
272.9658804
272.973271
272.98336
272.9904281
272.9949297
273.0008142
273.0118614
273.0231751
273.0315171
273.0317135
273.0255378
272.9941506
271.1118792
278.6777296
273.0552029
272.9702239
272.962144
272.9612795
272.9625287
272.9631923
272.9641519
272.9703919
272.9798971
272.9865396
272.9922187
273.0011043
273.0140989
273.0230485
273.027007
273.0267984
273.0250085
272.9987908
271.1791748
278.2112436
273.0489333
272.9694764
272.9608997
272.9617669
272.9630024
272.9627498
272.9636322
272.9687084
272.9763011
272.9827458
272.990829
273.0023115
273.0152814
273.0221455
273.0236076
273.0238385
273.0250535
273.0029044
271.1305907
278.1556011
273.0466883
272.9695529
272.9608712
272.9611657
272.9619744
272.9623392
272.964402
272.9683799
272.9736599
272.9804868
272.9907797
273.0029421
273.0142205
273.0201673
273.0226812
273.0239243
273.0254488
273.0045317
271.2690463
277.5343664
273.0362427
272.9710461
272.9629975
272.9613323
272.9607567
272.9618964
272.965214
272.9683653
272.9722244
272.9801228
272.9916749
273.0027957
273.0115562
273.0177166
273.0233504
273.0256689
273.0249735
273.0039328
271.2605115
277.4739255
273.0318306
272.9739053
272.9669157
272.9632082
272.9606494
272.9615307
272.9654889
272.9683726
272.9722596
272.9805919
272.9924082
273.0022278
273.0097085
273.0161668
273.023705
273.0258952
273.0229498
273.001058
271.4726467
276.6871697
273.0212963
272.9769283
272.9706306
272.9660108
272.9620011
272.9620904
272.9657467
272.969727
272.9740041
272.981399
272.9920731
273.001899
273.00956
273.0160661
273.0227408
273.0234931
273.0190629
272.9989064
271.4963392
276.6427047
273.0191878
272.9794203
272.9727701
272.9681749
272.9646142
272.9644518
272.9676784
272.9725462
272.9773399
272.9820952
272.9908155
273.0013747
273.010892
273.0170447
273.0205455
273.01905
273.014726
272.9970636
271.7699426
275.7123116
273.0102926
272.9810878
272.9735494
272.9697148
272.9681786
272.9691606
272.971205
272.9757209
272.9803382
272.9831374
272.9900025
273.0009747
273.0114778
273.017157
273.017285
273.0145159
273.0112461
272.9979492
271.8276644
275.7096001
273.0083147
272.9827544
272.975483
272.9721115
272.9730655
272.9750164
272.9754206
272.9777721
272.981961
272.9855372
272.9920669
273.0008102
273.009638
273.0141895
273.0134871
273.0112897
273.0093309
272.9993421
272.1506995
274.6480009
273.0004835
272.9855109
272.9798682
272.9772416
272.9790558
272.9804246
272.9785654
272.9787955
272.9824704
272.9893432
272.9969068
273.0018062
273.0055355
273.0081669
273.0091458
273.0094614
273.0086897
273.002316
272.2367921
274.7204396
273.0005648
272.9895309
272.9885003
272.9849225
272.9877895
272.9851201
272.9838644
272.9807117
272.9841874
272.9936468
273.0027532
273.0035753
273.0022585
273.0017945
273.0048577
273.0077813
273.008009
273.004031
272.582116
273.5446545
273.1046264
272.9985322
273.1511137
273.0010574
273.1642785
273.0037625
273.1271594
272.9946639
273.0712256
272.9982919
273.0459916
273.0022336
273.0161023
272.9871185
273.0056649
272.9930305
273.010409
273.0030023
272.6674667
266.9561922
282.4026655
268.7598186
283.8393298
270.849912
284.0006499
272.1305575
282.851734
272.2778357
280.7876374
271.5042141
278.4018134
270.4041264
276.2531085
269.5381939
274.9650901
269.3844574
274.7715575
269.9437609
275.4242331
280.4946859
273.1025005
272.990262
272.9865461
272.9739763
272.9704907
272.9806309
272.9887246
272.9926338
272.9997526
273.0110689
273.0181986
273.0196559
273.0243427
273.0296059
273.0285194
273.0265275
273.0280926
272.9918121
270.3079005
280.507369
273.100259
272.979183
272.9729584
272.9684934
272.9686638
272.9761304
272.9821288
272.9864606
272.9931973
273.0021098
273.0098819
273.0151939
273.0211916
273.0249331
273.024133
273.0220909
273.0218002
272.98417
270.2910537
280.4391934
273.104029
272.9752987
272.9661054
272.9697352
272.972659
272.9761059
272.979913
272.9859181
272.9925814
272.9987765
273.0073223
273.0168273
273.0233355
273.0255785
273.0264772
273.0252859
273.0220975
272.9819903
270.205776
280.4654855
273.1066895
272.9746659
272.9638962
272.9715444
272.9751193
272.9739631
272.976222
272.9841863
272.9914434
272.9964238
273.0059701
273.017253
273.0226911
273.0244223
273.0287745
273.0292313
273.023041
272.9806058
270.1807321
280.2669661
273.0981827
272.9755624
272.9651997
272.9712549
272.9751927
272.972218
272.9729855
272.9816538
272.990057
272.9963901
273.0062716
273.0160342
273.0198404
273.0228353
273.0302249
273.0317205
273.0236643
272.9805749
270.0410172
280.2443298
273.0880421
272.9759189
272.9678372
272.9690378
272.9731307
272.9716119
272.971134
272.9786635
272.9885968
272.9976251
273.0070942
273.0131878
273.0168753
273.0219259
273.0299831
273.0309974
273.0233069
272.9828723
270.048884
279.8848965
273.0730887
272.9758764
272.9702436
272.9674648
272.9705253
272.9715608
272.9703491
272.9764136
272.9873618
272.998581
273.0058293
273.0099288
273.0152429
273.0225607
273.0284843
273.0276231
273.0219447
272.9862306
269.9259484
279.835113
273.0678525
272.9760292
272.9716563
272.9669035
272.9675677
272.9705794
272.970468
272.9752727
272.9864639
272.9959068
273.0019179
273.0056681
273.0154543
273.024457
273.0271039
273.0240808
273.0209198
272.9905893
270.0078289
279.3105965
273.0608524
272.976642
272.971081
272.9656472
272.964128
272.9681923
272.9712498
272.9770683
272.9855382
272.9929214
272.9967597
273.0033143
273.016323
273.0260582
273.0259305
273.0223437
273.0213366
272.9954391
269.9587648
279.2343059
273.0633351
272.977035
272.9687821
272.9633107
272.9610347
272.9653654
272.9726125
272.9791635
272.9837545
272.9877729
272.9937015
273.0036048
273.0169021
273.024785
273.0241503
273.0222708
273.0226062
272.9986243
270.152337
278.5107372
273.0532882
272.9765035
272.9668599
272.9636573
272.9611175
272.9643427
272.972911
272.9791231
272.9805342
272.9840824
272.9936825
273.0067063
273.0164899
273.0202132
273.0211926
273.0225561
273.0231422
273.0005089
270.1956782
278.4301976
273.0482161
272.9760481
272.9677321
272.9673602
272.9651546
272.965152
272.9711365
272.9757004
272.9776717
272.9828088
272.9952716
273.0092152
273.0155453
273.0157086
273.0184278
273.0217958
273.0221375
272.99937
270.4918472
277.4742104
273.0307101
272.9772087
272.971302
272.9728666
272.9708541
272.9666745
272.9675645
272.9724317
272.9780315
272.9851595
272.9964289
273.0082263
273.0134655
273.0143917
273.0182151
273.0208889
273.0189223
272.9970335
270.6050252
277.4156286
273.0258472
272.9801158
272.9756247
272.9752473
272.9743713
272.9692037
272.9659792
272.9723629
272.9827883
272.9899221
272.9962622
273.0031489
273.0103577
273.0164095
273.0210775
273.0207598
273.0156356
272.9931034
270.9864979
276.2760649
273.0135692
272.9840378
272.9783551
272.9741263
272.9747853
272.9734997
272.969614
272.9762166
272.9875053
272.9939074
272.9954629
272.9977688
273.0070536
273.0184356
273.0231954
273.0208118
273.0134721
272.9927676
271.1583546
276.2803809
273.0143214
272.9875272
272.9805742
272.9729913
272.9744837
272.9784297
272.9785309
272.98153
272.9881345
272.9938081
272.9958438
272.9969554
273.0051836
273.0155134
273.0200264
273.0188373
273.0131345
272.9960593
271.5977017
274.9798591
273.0061026
272.9897811
272.9831195
272.9769428
272.9768793
272.9826122
272.9871287
272.9861089
272.9845519
272.989751
272.9978352
273.0020189
273.0048117
273.00783
273.0112083
273.0139829
273.0137893
273.0042383
271.8146841
275.084094
273.0072261
272.9911329
272.9892053
272.9851535
272.9854206
272.986208
272.9947116
272.9892347
272.9820861
272.9856654
272.9997997
273.0087265
273.005892
272.9999136
273.0013742
273.007763
273.0132565
273.0111895
272.2822419
273.6441288
273.1406204
272.9999646
273.1932665
273.0028402
273.2020595
273.0049066
273.1584201
273.0015643
273.0708172
272.987388
273.0347215
273.0077534
273.0131109
272.9839848
272.9874429
272.9890232
273.0056382
273.0097171
272.4932974
266.2116112
283.8131038
268.3999841
285.547089
270.9356501
285.6219362
272.4940441
283.9696031
272.6454616
281.156764
271.6464585
278.039112
270.3362457
275.335016
269.319182
273.7291021
269.2625086
273.6500132
270.1850331
274.614133
283.7071873
273.1753745
273.000908
273.0009174
272.9878622
272.9814407
272.98993
272.999397
273.0016477
273.0045651
273.0155831
273.0225668
273.0209921
273.0220817
273.0264793
273.027643
273.02749
273.028003
272.9769959
268.5380079
283.7527615
273.1752182
272.9895472
272.9840313
272.9783415
272.9779589
272.9863979
272.9925897
272.9962957
273.0015454
273.0084983
273.0131524
273.0150054
273.0197469
273.0241449
273.0246413
273.022657
273.0209075
272.9695987
268.4818575
283.6899153
273.1796681
272.983935
272.9736857
272.9774151
272.9826604
272.9874878
272.9893769
272.996011
273.0031122
273.0061227
273.0090346
273.0167877
273.0245013
273.0272387
273.0269837
273.0239251
273.0196602
272.9690667
268.3330877
283.7859465
273.1836393
272.980136
272.9683048
272.9808583
272.9886305
272.9856455
272.9841805
272.9937485
273.0016512
273.0023639
273.0072008
273.0209104
273.0281354
273.0270089
273.0265351
273.0240938
273.0190055
272.9699314
268.2131519
283.5720813
273.173985
272.9802481
272.9694469
272.9819485
272.9895738
272.9839655
272.9812165
272.989745
272.9971003
272.999937
273.0095931
273.0242277
273.0277263
273.0241348
273.0239715
273.0232913
273.0193731
272.9743331
267.9854144
283.6120655
273.1651272
272.9822747
272.974256
272.9791373
272.9848865
272.9833809
272.9812473
272.9857028
272.9919747
273.0002802
273.0145203
273.0241813
273.0238709
273.0212479
273.0217673
273.0221167
273.0202695
272.98046
267.8907475
283.1604609
273.1447146
272.9830262
272.9787768
272.9756683
272.9778499
272.9834952
272.9829902
272.9822776
272.9884819
272.9700222
273.0171778
273.0204956
273.0191713
273.0208764
273.0226917
273.0219756
273.0208617
272.986729
267.7142258
283.1223174
273.1334602
272.9827283
272.9816429
272.9724987
272.9710187
272.9828877
272.9844565
272.9806704
272.9863559
272.8075625
273.0145288
273.012982
273.0147397
273.0236757
273.0270654
273.0234914
273.0207673
272.9894808
267.7482292
282.4147705
273.1177612
272.9842527
272.9818356
272.969886
272.9663026
272.9792713
272.9841763
272.9831018
272.9899468
272.9909792
273.0075524
273.0062063
273.0129856
273.0261774
273.0314838
273.0257753
273.0195616
272.9895716
267.721111
282.2797426
273.1217217
272.9866666
272.9782445
272.9678659
272.9641281
272.9739011
272.9828734
272.9872559
272.9921398
272.9974379
273.0009908
273.0059159
273.0150842
273.0261733
273.0310342
273.0262965
273.0182151
272.9872278
267.9640432
281.2650801
273.1064451
272.9851076
272.9727848
272.9684572
272.9663148
272.9712743
272.9808151
272.9885588
272.9902066
272.9912712
272.9983134
273.0106973
273.0191526
273.0226838
273.0245634
273.0231256
273.0175347
272.9893963
268.134054
281.0830598
273.0977496
272.9803921
272.9695402
272.9719471
272.972201
272.9732075
272.9779028
272.9845981
272.9864784
272.9882457
272.9987546
273.0144929
273.0211331
273.0181345
273.0172705
273.0186027
273.0180346
272.9929953
268.5979021
279.7047381
273.0644456
272.9779833
272.9718023
272.9774702
272.9790623
272.9762578
272.973208
272.9772586
272.9846607
272.9912287
273.0010671
273.0123718
273.0178558
273.016009
273.0148808
273.0168519
273.0184649
272.9978414
268.910628
279.5060673
273.0506995
272.9801961
272.9789583
272.9795536
272.9808728
272.9780962
272.9693106
272.9720985
272.9872237
272.9995988
273.0035208
273.0045929
273.0102487
273.0167336
273.0193483
273.0193488
273.018542
272.9972584
269.516996
277.8824781
273.0268472
272.9862376
272.9858672
272.9778252
272.9780169
272.9787318
272.9707265
272.9745695
272.9921833
273.0070613
273.0042539
272.9960846
273.0027158
273.0175496
273.0252944
273.0234204
273.0175679
272.9954513
269.9086789
277.7751737
273.0297753
272.992353
272.9890253
272.9767212
272.9747713
272.9793644
272.980101
272.9842447
272.9944984
273.0047684
273.0024414
272.9951238
273.0011615
273.0146283
273.023989
273.0231828
273.0158304
272.9940255
270.5754085
275.9314016
273.0174974
272.9941934
272.9876528
272.9805304
272.9765799
272.9806905
272.9916815
272.9960956
272.9922107
272.992831
272.9979611
273.0021479
273.0056349
273.0093642
273.0143374
273.0164502
273.0137028
273.0001341
271.0221604
275.9892276
273.0188288
272.9914202
272.9876127
272.9881008
272.9882145
272.984385
273.0021798
273.0042107
272.9909906
272.9804988
272.9915684
273.0091598
273.0116491
273.0047043
273.0031273
273.0070935
273.011198
273.0071466
271.7154069
273.9629548
273.2000015
273.0021772
273.2770553
273.0179269
273.3034709
273.0254463
273.2349855
273.0261016
273.1115317
272.9818267
273.0304213
273.0043781
273.0174841
272.9881764
272.9815209
272.9862909
273.0009076
273.0083258
272.1587583
265.778
285.8576283
269.0226007
288.5247832
272.8544734
288.894305
275.0997405
286.7302603
274.7283158
282.8925107
272.4152527
278.670648
269.8468418
275.1560615
267.8612189
273.1958165
267.3643999
273.4747304
268.636231
275.1911151
286.8074614
273.267645
273.0042271
273.0039272
273.0046409
273.0023708
272.9987864
273.0065225
273.0168346
273.0169717
273.0156414
273.0207241
273.0263887
273.0253929
273.023234
273.025314
273.0280975
273.027989
272.9543158
265.7991831
286.8837901
273.2665838
273.0000345
272.9948947
272.9908265
272.9916043
272.9979847
273.0031909
273.0074865
273.0109851
273.0135236
273.0153121
273.0171336
273.0194537
273.0225302
273.0254408
273.0247227
273.0202103
272.9468922
265.7104691
286.8470015
273.2633568
272.9975348
272.9899084
272.9869471
272.9918024
273.0025946
273.0032814
273.0037292
273.0110542
273.0164779
273.0137163
273.0141196
273.0212931
273.0281547
273.0296421
273.0247343
273.0172854
272.9483137
265.4299968
287.0203622
273.2620063
272.9910409
272.9843704
272.9890612
272.9977067
273.0033952
272.9998245
272.9998679
273.0093426
273.0167975
273.0125786
273.0147829
273.0237536
273.0301421
273.0284349
273.0209797
273.0137115
272.9530736
265.226473
286.8410836
273.2517152
272.9893043
272.9836553
272.9903312
272.9975959
273.0005698
272.9983339
272.9989412
273.003939
273.0108514
273.014743
273.020353
273.0260934
273.0274698
273.0228393
273.0169501
273.0135484
272.9634412
264.8047844
286.9566731
273.2560567
272.9924592
272.9860641
272.9883018
272.989765
272.9954322
273.000195
273.0002983
272.9956804
272.9255871
273.0188742
273.0277443
273.027495
273.0226832
273.0176854
273.0159598
273.0165355
272.9761302
264.6578283
286.4954833
273.2384783
272.9926092
272.9876542
272.9842556
272.979962
272.9935597
273.0037074
273.0002912
272.9396554
270.3354658
272.9987367
273.0318889
273.0250762
273.0193173
273.0180758
273.0195704
273.0203531
272.987787
264.3209738
286.4525659
273.2269391
272.9894139
272.9879481
272.9801311
272.9728187
272.9935687
273.0057327
272.993987
272.7136873
265.1056565
272.8631556
273.0262226
273.0186465
273.0180016
273.0238972
273.0262154
273.0225843
272.9919028
264.3760785
285.6087007
273.1956457
272.9888261
272.9870943
272.9785658
272.9714313
272.9909128
273.0025125
272.9952165
272.9739404
271.9089778
273.0092257
273.0187007
273.0123783
273.0199345
273.0318607
273.031987
273.0209985
272.990456
264.3181886
285.3823053
273.1936815
272.9919275
272.9845962
272.978917
272.9742055
272.9850519
272.9948362
272.995479
272.9952164
272.9754503
273.0117233
273.0136356
273.0127702
273.0228682
273.034822
273.0318832
273.0167753
272.9837453
264.6948816
284.0954374
273.1631035
272.9911849
272.9800147
272.9796865
272.977822
272.9808922
272.9884332
272.9956293
272.9986189
272.9997019
273.007727
273.0135372
273.0181092
273.0247614
273.0301933
273.025528
273.0130244
272.983858
264.9997371
283.7969778
273.1547565
272.9864472
272.976411
272.9789668
272.9796304
272.981742
272.9863475
272.9939751
272.9971971
272.9983846
273.0059753
273.0138667
273.0210354
273.0237878
273.0224365
273.017517
273.0126956
272.9889146
265.7112683
281.9779595
273.1064762
272.9830965
272.977555
272.977321
272.9793386
272.9874415
272.9871847
272.9884313
272.9916744
272.999096
273.0077444
273.0127341
273.0185595
273.0211713
273.0174896
273.0141856
273.0154598
272.9988186
266.3190406
281.6868974
273.0908726
272.9836317
272.9844969
272.9773805
272.976816
272.9888267
272.9867655
272.9810603
272.9868982
273.0033066
273.0110727
273.0095539
273.0117431
273.0171356
273.017778
273.0164797
273.018634
273.0033472
267.2491115
279.4939812
273.0485101
272.9868764
272.9927725
272.9800342
272.9747583
272.9843784
272.9856609
272.9809415
272.9881967
273.0080508
273.011818
273.0047388
273.0045914
273.0134033
273.0209962
273.0212513
273.0189778
273.0033114
268.0212587
279.3352005
273.0520957
272.992677
272.9949869
272.9844784
272.976138
272.9788281
272.985395
272.9889364
272.9950315
273.0064741
273.0067142
273.0022507
273.0034951
273.0115417
273.0209827
273.0213852
273.015901
272.9969539
269.0056419
276.8481924
273.0270083
272.9955793
272.9908313
272.9882432
272.9830862
272.9793009
272.9873655
272.9996538
273.0028089
272.9996933
272.9968777
273.0018731
273.0088229
273.0134386
273.0166254
273.015184
273.0102807
272.9961673
269.8369529
276.9456917
273.0289215
272.9936257
272.9893208
272.9905979
273.0006574
272.9861184
272.9953923
273.0068455
273.0093122
272.9932205
272.9872291
272.9998843
273.0136798
273.0154964
273.0100828
273.0064443
273.0050957
272.9965902
270.8271336
274.2314655
273.3059789
273.0077882
273.4339991
273.017073
273.4673635
273.043183
273.3133449
273.0329648
273.1496033
272.9963148
273.0137151
272.9843097
272.9909987
272.9902215
272.9645172
272.981623
272.9790657
272.9956562
271.6570404
264.3317092
289.1010216
268.5097531
292.7041275
273.4980769
292.9545653
276.5224136
289.4130073
276.0524521
283.809523
273.1423567
277.8007247
269.6946242
272.8526571
267.1026562
270.1017757
266.7486042
270.6413357
268.9770231
273.2300848
293.1533345
273.5258761
273.0103269
273.004876
273.0183026
273.0226939
273.0102324
273.0102704
273.0296609
273.0333903
273.0182311
273.0138111
273.0282262
273.0319511
273.0275857
273.0289025
273.0270803
273.0219784
272.9425195
261.1323685
293.3527771
273.5266317
273.0164181
273.0061142
273.0034335
273.0032293
273.0133809
273.018751
273.0169044
273.0142952
273.017162
273.0223738
273.0194962
273.0154061
273.0175732
273.0241644
273.0236755
273.0171336
272.9386845
260.904051
293.3844835
273.5213901
273.018038
273.0081765
272.9985746
272.9977753
273.0232322
273.0273461
273.0099383
273.0059724
273.0216312
273.0278341
273.0145448
273.009375
273.0175582
273.0255149
273.0234623
273.0168955
272.9497332
260.3693915
293.8025022
273.5229158
273.0091524
273.0024599
272.9985613
273.0028087
273.0251458
273.0237067
273.0055684
273.0074516
273.0209958
273.0213648
273.0121398
273.0138396
273.0223876
273.0254441
273.0197221
273.0141427
272.9641486
259.7907091
293.7269846
273.5096463
273.0039576
272.9977294
273.0001749
273.0031343
273.0143975
273.0178354
273.0112241
273.0098146
272.8983568
273.0138796
273.0155487
273.0226554
273.026593
273.0224912
273.0157535
273.0126546
272.9845152
258.9910984
294.0842201
273.5306113
273.0064702
272.9950365
273.0019477
272.9963747
272.9973027
273.0150388
273.0224607
272.9324186
270.0305487
272.9913607
273.0224652
273.0307111
273.0280687
273.0185824
273.0148241
273.0137178
273.0044659
258.4279546
293.5900245
273.5201686
273.0062653
272.9912821
273.0007565
272.9907712
272.9855787
273.0151399
272.9867212
270.7557683
237.6288616
271.9081719
273.0151458
273.0351727
273.0265635
273.0170653
273.0185517
273.0167498
273.0237629
257.8527411
293.6469234
273.5119182
273.002235
272.9868089
272.9975359
272.9889232
272.9824104
273.0108117
272.8532998
266.9054315
229.1850364
268.7596604
272.9194033
273.033624
273.0227387
273.0183085
273.024211
273.0195684
273.0346579
257.7146976
292.5001516
273.447582
272.9957265
272.9840143
272.9969507
272.9928241
272.9829019
273.0022705
273.0051988
271.8255749
254.1395933
272.3033705
273.012629
273.0257179
273.0206456
273.0215578
273.0280268
273.0196672
273.0388281
257.7250408
292.1355397
273.4230491
272.9924319
272.9831692
272.998675
272.9987973
272.9824659
272.989049
273.0117762
272.9928389
271.3586222
272.9997437
273.0141544
273.0207647
273.022147
273.0248094
273.0272559
273.0169406
273.0331807
258.2610811
290.2171006
273.3454378
272.991403
272.9835636
272.9989782
272.9999454
272.9822326
272.9794569
273.0003789
273.0185576
272.9536125
273.0015595
273.0098082
273.0212805
273.0256063
273.0264766
273.0234352
273.0132872
273.0277749
258.9517377
289.6714104
273.3259063
272.9930038
272.9845189
272.9927916
272.9928448
272.9823921
272.9813167
272.9997681
273.0154369
273.0075557
272.9996454
273.0103358
273.0226479
273.02637
273.0252347
273.0195649
273.0125102
273.0219016
260.1647491
286.9041676
273.2435148
272.9935149
272.9856418
272.981344
272.9802586
272.984951
272.9961886
273.0066932
273.0045738
272.9995542
273.0043018
273.0152947
273.0216745
273.0218798
273.0214003
273.0182096
273.0147496
273.0227144
261.4043965
286.2790137
273.2230735
272.993236
272.9875005
272.9779041
272.9720992
272.9861412
273.0113202
273.0123458
272.9896581
272.9907816
273.0140744
273.0225473
273.0161989
273.011704
273.0172329
273.0189654
273.0177704
273.0194742
263.0499726
282.9804059
273.1324675
272.9887043
272.9886267
272.9863123
272.9710959
272.9818487
273.0152306
273.0123745
272.9801677
272.98523
273.0182821
273.0260401
273.0107836
273.0035819
273.0147059
273.0203175
273.0176896
273.0167112
264.531873
282.532102
273.1173363
272.9887725
272.987927
272.994747
272.9772777
272.9778737
273.0022101
273.0042283
272.983451
272.9897305
273.0141843
273.0193624
273.0080747
273.0046464
273.0143298
273.0177691
273.0139399
273.0055107
266.2141952
278.8035181
273.048024
272.9934915
272.9899458
272.9919254
272.9883354
272.9869151
272.9836606
272.9899187
273.0012198
273.0061398
273.0029423
273.0033925
273.0090919
273.0151046
273.0156388
273.0117117
273.0075693
272.9987129
267.7244902
278.8323701
273.0439958
273.0005848
273.0105921
272.984673
273.0174753
273.0059229
272.9853756
272.9798073
273.0237793
273.0274383
272.9951596
272.9840903
273.0079659
273.0252321
273.0172375
273.0056914
273.0017156
272.9905032
269.304355
274.8279079
273.4714344
273.0263345
273.7781938
273.0583282
273.8260163
273.1820326
273.5219419
273.0833091
273.2599863
273.056083
273.0348153
272.942131
272.9561118
272.9890448
272.9595676
273.0001286
272.9718911
273.0008115
270.7960159
263.4301025
293.3978952
269.652094
299.11604
277.5048105
299.869871
282.4909945
294.733428
280.6312204
286.6245248
274.9892943
278.2995282
268.6994552
271.5110177
263.8235786
267.9721815
262.3685158
269.5715192
265.5434347
274.050228
299.6149154
273.8474202
273.0285543
273.0166201
273.0228071
273.0276219
273.039327
273.0241248
273.0168406
273.0403379
273.0406853
273.0170822
273.0122805
273.0288028
273.0383437
273.0367076
273.0236732
273.0108015
272.9490859
255.5454665
300.096222
273.8687918
273.0344846
273.0164911
273.0160618
273.010848
273.0273638
273.0382671
273.0296949
273.0168717
273.0178298
273.0208466
273.015919
273.0110121
273.0149795
273.0217999
273.0201783
273.0112823
272.9536713
255.1472801
300.2817925
273.8759541
273.0366257
273.0168138
273.0155655
273.008725
273.0223405
273.0464732
273.0391613
273.0067325