/*--------------------------------*- C++ -*----------------------------------*\
| =========                 |                                                 |
| \\      /  F ield         | OpenFOAM: The Open Source CFD Toolbox           |
|  \\    /   O peration     | Version:  5.x                                   |
|   \\  /    A nd           | Web:      www.OpenFOAM.org                      |
|    \\/     M anipulation  |                                                 |
\*---------------------------------------------------------------------------*/
FoamFile
{
    version     2.0;
    format      ascii;
    class       volScalarField;
    location    "0.4";
    object      p;
}
// * * * * * * * * * * * * * * * * * * * * * * * * * * * * * * * * * * * * * //

dimensions      [1 -1 -2 0 0 0 0];

internalField   nonuniform List<scalar> 
30538
(
101287.4654
101274.7397
101272.7729
101276.566
101280.1787
101283.7093
101288.3849
101295.6806
101305.3627
101314.8794
101322.2634
101324.1816
101321.3851
101317.6453
101321.0724
101334.1179
101348.5101
101350.3864
101336.7846
101314.8891
101288.6639
101277.5713
101276.5972
101280.9516
101285.0395
101288.9777
101293.7116
101300.2252
101308.3
101315.6493
101321.0668
101321.8815
101318.9475
101315.7397
101319.6491
101332.8626
101347.2699
101349.3819
101336.2396
101314.729
101290.8091
101282.6984
101283.606
101289.1163
101294.0893
101298.636
101303.3288
101308.33
101313.4272
101316.8223
101318.6778
101317.4701
101314.1972
101311.8178
101316.4562
101329.8247
101344.2337
101346.9167
101334.8654
101314.3233
101293.4655
101289.1668
101292.6265
101299.7923
101305.9143
101311.0717
101315.4529
101318.3343
101319.534
101317.8913
101315.2165
101311.4001
101307.5416
101305.9587
101311.2159
101324.527
101338.8918
101342.5532
101332.3761
101313.5793
101296.0944
101295.7541
101301.9884
101311.0853
101318.4648
101324.1056
101327.8127
101328.2337
101325.2738
101318.4313
101311.0626
101304.4546
101299.8214
101298.7761
101304.2772
101317.1684
101331.387
101336.3957
101328.8113
101312.506
101298.1633
101301.0853
101309.7556
101320.7386
101329.3757
101335.3551
101338.1328
101336.1462
101329.4966
101318.255
101306.8976
101297.8127
101292.3591
101291.5044
101296.8211
101308.9413
101322.8421
101329.3454
101324.664
101311.2438
101299.3125
101304.1488
101314.3465
101326.7033
101336.3759
101342.5754
101344.4476
101340.6179
101331.4648
101317.456
101303.5508
101292.8327
101286.7181
101285.7277
101290.5197
101301.679
101315.1008
101322.8859
101320.7577
101310.0012
101299.4851
101304.6137
101315.0314
101327.8243
101337.9618
101344.1207
101345.2747
101340.5691
101330.6514
101316.1175
101301.7457
101290.6728
101284.1947
101282.7717
101286.823
101297.0461
101309.9214
101318.4251
101317.9606
101309.0274
101298.8964
101302.894
101312.1265
101324.1278
101333.855
101339.4625
101340.0355
101335.563
101326.8241
101314.342
101301.9334
101292.006
101285.5461
101283.3709
101286.4787
101295.8677
101308.1649
101316.6348
101316.6592
101308.4398
101297.7549
101299.6511
101306.6787
101316.74
101324.9587
101329.2719
101329.1786
101325.8015
101320.0775
101312.2603
101304.261
101296.8812
101290.7697
101287.469
101289.325
101297.8576
101309.5143
101317.1296
101316.5424
101308.1312
101296.2783
101295.5322
101299.7203
101307.1133
101312.8068
101314.9645
101313.8901
101312.1637
101311.0422
101310.0717
101308.567
101304.8477
101299.3218
101294.5521
101294.7055
101302.1584
101313.0637
101319.1808
101317.1139
101307.9541
101294.5963
101291.0073
101292.4026
101296.7466
101299.288
101298.637
101296.2454
101296.388
101300.8284
101308.0889
101314.3145
101314.9237
101310.0888
101303.7074
101301.9472
101308.0467
101318.0307
101322.1111
101317.7987
101307.6679
101292.927
101286.6813
101285.7764
101287.1543
101286.4371
101282.7841
101278.8566
101280.7692
101290.8906
101306.4917
101320.5704
101325.6102
101321.5105
101313.6033
101310.1015
101314.8077
101323.7446
101325.3569
101318.2442
101307.1082
101291.6595
101283.3749
101280.7295
101279.5929
101275.9413
101269.6126
101264.2092
101267.6086
101282.729
101305.38
101326.1758
101335.1602
101331.8793
101322.88
101318.1542
101321.8129
101329.7563
101328.7541
101318.3231
101306.2972
101291.1941
101281.891
101278.1741
101275.0384
101269.1026
101260.8465
101254.4045
101258.8866
101277.472
101304.8574
101330.0333
101341.8701
101339.4067
101330.0755
101325.0501
101328.1595
101335.3573
101331.9269
101318.1709
101305.4267
101291.7686
101282.7064
101278.6681
101274.2725
101266.9129
101257.7445
101250.9072
101255.8005
101275.5486
101304.609
101331.2182
101344.4274
101342.6518
101333.9465
101329.6247
101332.7492
101339.2959
101333.9236
101317.7721
101304.6599
101293.2991
101285.6564
101281.9091
101277.0253
101269.2902
101260.3394
101253.831
101258.6064
101277.1898
101304.3279
101329.284
101342.0506
101340.8653
101333.5808
101330.5929
101334.0029
101339.6717
101333.3322
101316.767
101304.057
101295.3151
101289.8757
101286.9282
101282.5014
101275.6332
101268.0405
101262.6932
101266.6439
101281.6604
101303.6553
101324.0293
101334.6574
101333.9691
101328.5417
101326.8996
101330.2144
101334.8005
101328.8566
101314.3321
101303.3671
101297.3507
101294.2916
101292.4673
101289.3562
101284.6125
101279.4972
101275.8686
101278.3618
101288.0855
101302.4208
101315.7025
101322.7073
101322.4422
101319.1756
101318.5096
101320.957
101323.9693
101319.775
101309.7694
101302.2987
101299.2076
101298.3195
101297.7129
101296.5219
101294.7076
101292.804
101291.4355
101292.2871
101295.7664
101300.9353
101305.6685
101308.1992
101308.1481
101307.0501
101306.9453
101307.9159
101309.0218
101307.4326
101303.6753
101300.8844
101290.4789
101281.1743
101277.6017
101278.8845
101279.2012
101277.1692
101274.9928
101279.3388
101292.2461
101311.005
101327.2003
101333.6408
101330.5669
101324.8665
101325.0992
101333.6665
101342.5619
101340.7572
101327.836
101309.9532
101291.2351
101283.0086
101280.2931
101282.0218
101282.5475
101280.7361
101278.5727
101282.3942
101294.2099
101311.4549
101326.2951
101331.973
101328.8002
101323.3299
101323.7407
101332.2963
101341.2207
101339.7984
101327.4455
101309.9269
101292.5282
101286.234
101285.1855
101287.8315
101288.8361
101287.3895
101285.1693
101287.9693
101297.7463
101312.163
101324.4945
101328.7343
101325.3285
101320.2487
101320.904
101329.3935
101338.3986
101337.7372
101326.5237
101309.8057
101294.0189
101290.1607
101291.3995
101295.4332
101297.1624
101296.0748
101293.6397
101295.0251
101302.1212
101312.8593
101321.9154
101324.2458
101320.4356
101315.7503
101316.6037
101324.9666
101334.1375
101334.546
101324.9521
101309.5236
101295.4055
101294.0744
101297.8181
101303.5314
101306.1561
101305.2841
101302.4779
101302.2809
101306.4951
101313.3266
101318.835
101319.061
101314.7169
101310.3202
101311.256
101319.3368
101328.6974
101330.4307
101322.8116
101309.0973
101296.532
101297.3757
101303.2836
101310.565
101314.1144
101313.3418
101310.1242
101308.4883
101310.1167
101313.4376
101315.6959
101313.9718
101309.0857
101304.8636
101305.7751
101313.4563
101322.9555
101326.0428
101320.4428
101308.6092
101297.3529
101299.6448
101306.8169
101315.0954
101319.3244
101318.6703
101315.2367
101312.6422
101312.4156
101313.1781
101313.0109
101309.8697
101304.5905
101300.4867
101301.3145
101308.5572
101318.0426
101322.1463
101318.2758
101308.1362
101297.9209
101300.7496
101307.9552
101316.2784
101320.6752
101320.1527
101316.7789
101313.8784
101312.8379
101312.4907
101311.2062
101307.4891
101302.101
101298.086
101298.7993
101305.5963
101314.8054
101319.3639
101316.5972
101307.67
101298.2427
101300.7499
101306.8114
101314.1719
101318.0485
101317.5084
101314.3175
101311.7345
101311.0817
101311.2997
101310.5461
101307.2632
101302.0644
101298.0182
101298.4935
101304.7866
101313.4342
101317.7802
101315.3585
101307.1344
101298.307
101299.8173
101303.9424
101309.5657
101312.3476
101311.4135
101308.2614
101306.384
101307.2212
101309.6794
101311.0911
101309.1639
101304.3641
101300.0319
101300.0101
101305.6364
101313.5328
101317.1133
101314.3927
101306.4839
101298.0687
101298.1664
101300.0116
101303.5523
101304.8797
101303.0004
101299.504
101298.4875
101301.6963
101307.8422
101312.7969
101312.9652
101308.6297
101303.6693
101302.9131
101307.7012
101314.7512
101317.1201
101313.6104
101305.7579
101297.4653
101295.8744
101295.6703
101297.1274
101296.9115
101293.7499
101289.4794
101289.3311
101295.3858
101306.0488
101315.3663
101318.0258
101314.1861
101308.4431
101306.6531
101310.4884
101316.6662
101317.5565
101312.9161
101304.9822
101296.6338
101293.3524
101291.4521
101291.1457
101289.5793
101285.1238
101279.821
101280.4076
101289.3004
101304.5146
101318.2851
101323.4376
101320.1786
101313.6851
101310.9096
101313.6888
101318.9236
101318.2834
101312.1508
101304.1487
101295.8832
101291.2104
101287.9646
101286.2965
101283.6508
101278.2062
101271.9668
101273.0983
101284.3669
101303.3026
101320.7236
101328.0653
101325.4786
101318.6538
101315.404
101317.2261
101321.3872
101319.1338
101311.2907
101303.2369
101295.534
101290.0202
101285.8031
101283.0918
101279.6863
101273.6866
101267.0135
101268.5328
101281.2881
101302.3437
101321.8586
101330.7679
101328.9559
101322.519
101319.4111
101320.632
101323.712
101319.8769
101310.2715
101302.258
101295.7448
101290.1026
101285.3785
101281.9785
101278.1699
101272.1443
101265.6214
101267.3488
101280.2842
101301.4255
101321.1128
101330.6893
101329.7378
101324.3518
101322.073
101323.0674
101325.1957
101320.027
101309.0985
101301.312
101296.4269
101291.3524
101286.7032
101283.0673
101279.2255
101273.6829
101267.8594
101269.5665
101281.3901
101300.511
101318.4034
101327.5933
101327.4226
101323.4937
101322.402
101323.5393
101324.743
101318.9316
101307.7735
101300.5836
101297.4105
101293.5091
101289.5949
101286.3468
101282.9364
101278.3859
101273.7145
101275.1759
101284.6996
101299.9008
101314.1862
101321.8135
101322.1178
101319.6505
101319.6061
101320.8251
101321.3787
101315.8703
101306.0712
101300.1491
101298.4632
101296.0421
101293.461
101291.1974
101288.8007
101285.7672
101282.7508
101283.7367
101289.8813
101299.6522
101308.8364
101313.861
101314.2703
101313.049
101313.5243
101314.5118
101314.682
101310.6855
101303.9198
101299.9695
101299.505
101298.7056
101297.792
101296.9347
101296.0007
101294.8737
101293.7948
101294.1632
101296.3386
101299.7893
101303.0452
101304.8581
101305.0726
101304.7605
101305.0936
101305.5273
101305.5485
101303.9928
101301.4199
101299.9673
101297.2931
101293.2535
101286.6701
101283.9079
101281.8302
101274.7896
101264.953
101265.1169
101279.355
101303.8008
101326.1023
101335.5844
101333.5091
101326.6311
101324.5969
101327.4694
101328.6851
101323.9756
101314.0678
101303.4655
101297.3544
101293.7438
101287.973
101285.7389
101283.6324
101276.2881
101266.2484
101266.0859
101279.9362
101303.9033
101325.7883
101335.0169
101332.7321
101325.5894
101323.1313
101325.7692
101327.2459
101323.0757
101313.7953
101303.5358
101297.339
101294.492
101290.2203
101288.9586
101286.8336
101279.0541
101268.7227
101268.002
101281.1141
101304.1214
101325.1724
101333.9196
101331.2661
101323.6571
101320.5273
101322.863
101324.8781
101321.6188
101313.3338
101303.6433
101297.0901
101295.1578
101292.8371
101292.9259
101290.8851
101282.6676
101272.097
101270.7346
101282.8346
101304.4674
101324.2925
101332.3662
101329.2272
101321.1511
101317.4002
101319.5603
101322.3106
101320.0812
101312.8525
101303.7711
101296.625
101295.5461
101295.3328
101296.9284
101294.9985
101286.5186
101275.9066
101273.9644
101284.9071
101304.9144
101323.2178
101330.4515
101326.7721
101318.4161
101314.3084
101316.5018
101320.1223
101318.7871
101312.4666
101303.9053
101296.2423
101295.9003
101297.5011
101300.2893
101298.3225
101289.8234
101279.5607
101277.2877
101287.0784
101305.3658
101321.9997
101328.3211
101324.229
101315.9211
101311.8621
101314.3431
101318.7277
101318.0123
101312.2758
101304.0476
101296.3386
101296.6743
101299.2972
101302.4633
101300.2332
101291.9936
101282.5041
101280.2784
101289.0668
101305.6701
101320.6831
101326.1807
101322.0292
101314.1342
101310.4891
101313.3518
101318.1221
101317.6904
101312.1831
101304.169
101297.0838
101298.019
101300.7177
101303.2922
101300.565
101292.7948
101284.3589
101282.507
101290.5471
101305.6542
101319.2397
101324.1945
101320.391
101313.26
101310.1381
101313.1323
101317.7176
101317.1755
101311.7724
101304.1341
101298.3596
101299.7541
101301.5664
101302.8683
101299.6731
101292.381
101284.9864
101283.693
101291.2923
101305.1943
101317.6696
101322.3891
101319.2113
101313.0346
101310.3189
101312.9883
101316.8872
101315.9461
101310.7678
101303.7911
101299.7603
101301.2331
101301.7657
101301.5407
101298.0081
101291.2976
101284.7668
101284.0579
101291.3291
101304.2898
101316.0016
101320.6638
101318.2342
101313.0756
101310.8168
101312.853
101315.681
101314.0739
101309.1584
101303.0829
101300.8643
101302.0561
101301.2094
101299.6483
101296.1374
101290.193
101284.2115
101283.9122
101290.7865
101303.0412
101314.2553
101318.9354
101317.2224
101313.0072
101311.3316
101312.6644
101314.2362
101312.0496
101307.3006
101302.1737
101301.4747
101302.2218
101299.9539
101297.4774
101294.5679
101289.5646
101283.9356
101283.7309
101290.0636
101301.7377
101312.5018
101317.1974
101316.0859
101312.7434
101311.8544
101312.6492
101313.0032
101310.371
101305.7307
101301.3924
101301.7435
101301.9757
101298.3161
101295.2804
101293.394
101289.506
101284.2874
101283.9469
101289.589
101300.5392
101310.8097
101315.5048
101314.975
101312.6281
101312.5254
101312.6915
101311.8177
101308.8865
101304.6119
101300.9153
101301.7975
101301.4497
101296.4985
101293.1524
101292.4063
101289.7242
101285.0431
101284.5989
101289.4906
101299.4277
101308.9786
101313.6634
101313.8886
101312.8044
101313.4407
101312.8178
101310.5987
101307.306
101303.7642
101300.6567
101301.7699
101300.7903
101294.6554
101291.1073
101291.3746
101289.8992
101285.8765
101285.4876
101289.6559
101298.2617
101306.7213
101311.3445
101312.5847
101312.9571
101314.479
101312.8672
101309.0077
101305.3473
101302.6757
101300.2342
101301.5835
101299.9355
101292.9078
101289.3402
101290.3338
101289.8643
101286.6542
101286.4835
101289.962
101297.0201
101304.1121
101308.5364
101310.8018
101312.656
101315.0268
101312.6867
101307.2336
101303.143
101301.1928
101299.4837
101301.2082
101298.9615
101291.6806
101288.3192
101289.7145
101289.967
101287.7106
101287.8408
101290.5965
101295.8742
101301.4602
101305.5095
101308.5185
101311.5276
101314.4842
101311.8959
101305.4813
101301.1269
101299.6091
101298.6834
101300.7378
101298.3178
101291.855
101288.9956
101290.3644
101290.9589
101289.6509
101289.9164
101291.9583
101295.6454
101299.5862
101302.8499
101305.9233
101309.3044
101312.2683
101309.953
101303.8395
101299.7988
101298.6366
101298.3032
101300.3075
101298.3587
101293.834
101291.8736
101292.8925
101293.4918
101292.9142
101293.2019
101294.4645
101296.5816
101298.8853
101301.0186
101303.3609
101306.0524
101308.3668
101306.7972
101302.352
101299.3469
101298.5529
101298.5718
101300.0282
101299.1959
101297.4808
101296.7276
101297.098
101297.3943
101297.2792
101297.4394
101297.8729
101298.5403
101299.2888
101300.0662
101301.0258
101302.1797
101303.177
101302.6288
101300.8749
101299.6343
101299.2852
101299.3835
101305.4351
101308.3469
101300.7316
101294.5065
101291.4229
101284.0572
101272.8601
101270.6196
101278.487
101295.5866
101311.6809
101319.0023
101319.2847
101316.5802
101316.1889
101314.3061
101308.8666
101304.673
101302.6982
101300.0417
101304.8525
101307.6563
101300.9619
101295.5902
101292.4761
101284.4225
101272.4682
101269.829
101277.8703
101295.5041
101312.148
101319.5751
101319.397
101315.8474
101314.6054
101312.4844
101307.6535
101304.012
101302.407
101300.0491
101303.684
101306.2356
101301.0971
101297.1149
101294.0187
101284.9247
101271.827
101268.5198
101276.8741
101295.4579
101313.0517
101320.6655
101319.6977
101314.7704
101312.3065
101310.0327
101306.3384
101303.4684
101302.1203
101300.0494
101302.0143
101304.1098
101300.6279
101298.2962
101295.2855
101285.2466
101271.1106
101267.1486
101275.8959
101295.6073
101314.2833
101322.1506
101320.2998
101313.8836
101310.3664
101308.4258
101306.1951
101303.8621
101302.1706
101300.0077
101300.1931
101301.7181
101299.5349
101298.5746
101295.6136
101284.9901
101270.4357
101266.1629
101275.3166
101295.9887
101315.6492
101323.812
101321.2368
101313.6241
101309.4983
101308.4737
101307.8856
101305.5241
101302.6687
101299.8828
101298.7041
101299.825
101298.4551
101298.0785
101294.8213
101284.0494
101269.9736
101265.8977
101275.3481
101296.5552
101316.8468
101325.3214
101322.3527
101314.1631
101310.0395
101310.3339
101311.1319
101308.1228
101303.5167
101299.6873
101298.1068
101299.2034
101298.1878
101297.4397
101293.3849
101282.7709
101269.9483
101266.464
101276.0147
101297.1234
101317.488
101326.268
101323.3627
101315.2839
101311.4896
101312.8751
101314.3861
101310.444
101304.3207
101299.497
101298.5992
101300.028
101298.9218
101297.234
101292.1749
101281.866
101270.5477
101267.9019
101277.2836
101297.5263
101317.2121
101326.1485
101323.7915
101316.3008
101312.7934
101314.4961
101315.8855
101311.3047
101304.4688
101299.315
101299.9399
101301.8402
101300.3998
101297.4328
101291.4655
101281.8043
101272.0834
101270.3387
101279.1398
101297.6035
101315.7366
101324.4901
101323.0914
101316.7177
101313.6409
101314.7842
101315.1832
101310.2812
101303.7211
101299.15
101301.5897
101303.7971
101301.8237
101297.7269
101291.4829
101282.938
101274.9133
101273.9965
101281.6829
101297.3474
101312.9558
101321.0729
101320.9175
101316.2827
101313.9283
101313.9785
101312.738
101307.7939
101302.2436
101298.9147
101302.9703
101305.2391
101302.5263
101297.81
101292.2118
101285.4544
101279.266
101278.9404
101284.885
101296.836
101308.9203
101315.9532
101317.1025
101314.886
101313.9793
101313.0784
101310.0469
101305.141
101300.7043
101298.6943
101304.0164
101306.2365
101302.4618
101297.4406
101293.2248
101289.0359
101284.9593
101284.9996
101288.6565
101296.2397
101304.1122
101309.6132
101312.0977
101312.812
101314.1995
101312.7012
101307.9193
101303.045
101299.9323
101298.8238
101304.9527
101307.1159
101301.8363
101296.6878
101294.436
101293.0908
101291.2065
101291.5432
101292.716
101295.645
101299.1147
101302.8135
101306.6482
101310.4748
101314.5487
101312.5497
101306.0894
101301.4744
101300.0889
101299.4939
101305.773
101307.7849
101300.78
101295.4657
101295.2115
101296.591
101296.9555
101297.6684
101296.4907
101295.0182
101294.3393
101296.3709
101301.6123
101308.524
101314.7739
101311.959
101303.5001
101299.5307
101300.6895
101300.5924
101306.2676
101307.822
101299.1604
101293.8332
101295.1155
101298.4995
101301.0427
101302.217
101299.3109
101294.3027
101290.236
101291.1218
101297.6443
101307.2077
101314.6569
101310.4989
101299.7208
101296.6013
101300.8823
101301.569
101306.0103
101306.6409
101296.9006
101291.8018
101294.1806
101298.7818
101302.9859
101304.7031
101300.9069
101293.7086
101287.5134
101287.71
101295.1993
101306.2898
101313.949
101308.3227
101295.509
101293.0861
101300.2332
101301.8965
101305.0053
101304.4139
101294.4485
101289.8931
101292.8926
101298.0021
101303.1151
101305.2717
101301.3762
101293.4498
101286.5053
101286.4086
101294.1987
101305.4102
101312.4656
101305.988
101292.4033
101290.4333
101299.0403
101301.4549
101303.5326
101302.0134
101293.1122
101289.4599
101292.48
101297.268
101302.2518
101304.4374
101301.1444
101294.0366
101287.7593
101287.5882
101294.5268
101304.284
101309.9214
101303.8956
101291.7136
101290.1235
101298.1395
101300.7327
101301.994
101300.3834
101294.0621
101291.6256
101293.9435
101297.5144
101301.2158
101302.8242
101300.6291
101295.7416
101291.3616
101291.2099
101296.061
101302.7491
101306.418
101302.1389
101293.5843
101292.4651
101298.1465
101300.2205
101300.5694
101299.7315
101297.2562
101296.3471
101297.2793
101298.7268
101300.2235
101300.8897
101300.1027
101298.308
101296.6385
101296.5746
101298.4257
101300.9588
101302.307
101300.7088
101297.4274
101296.9292
101299.0652
101300.0007
101311.9507
101322.7532
101319.727
101313.9607
101310.5836
101305.2622
101298.147
101294.0878
101291.1063
101290.2403
101289.4539
101289.8618
101291.8811
101295.3437
101298.4344
101294.6836
101287.2702
101287.4401
101294.2711
101299.168
101310.9312
101321.3097
101319.1652
101314.4217
101311.4046
101305.3554
101297.1211
101292.4407
101289.841
101290.156
101290.4752
101291.1216
101292.5304
101294.9353
101297.2578
101293.6256
101286.9437
101287.4344
101294.1613
101299.0909
101309.1036
101318.583
101317.6848
101314.4798
101312.0605
101305.043
101295.1406
101289.5451
101287.6869
101290.0866
101292.403
101293.5436
101294.0092
101294.7547
101296.0575
101292.9118
101287.4935
101288.1819
101294.2289
101298.8706
101306.8696
101314.9542
101314.8194
101313.1114
101311.4472
101303.7122
101292.4595
101286.0646
101285.1897
101290.1289
101294.9798
101296.9278
101296.5102
101295.4693
101295.9936
101294.0096
101290.0637
101290.3086
101294.6671
101298.4406
101304.6822
101311.2306
101310.7879
101309.7999
101308.6986
101301.0379
101289.3852
101282.6677
101282.8618
101290.2922
101297.8459
101300.9306
101300.0201
101297.6204
101297.8639
101297.5734
101295.0117
101293.8922
101295.4333
101297.7589
101302.9776
101308.1294
101306.7224
101305.3502
101304.2555
101297.2961
101286.2705
101279.7653
101281.0009
101290.5525
101300.603
101305.0557
101304.1993
101301.0539
101301.2945
101302.7475
101301.1948
101298.062
101296.1972
101296.8629
101302.1084
101306.2919
101303.8774
101301.3995
101299.6441
101293.4123
101283.4408
101277.5638
101279.7863
101290.8959
101302.8978
101308.7123
101308.3628
101304.8308
101304.8314
101307.457
101306.4321
101301.4308
101296.8345
101295.9937
101302.0462
101305.7075
101302.6663
101298.9983
101296.1842
101290.3052
101281.4097
101276.4182
101279.4144
101291.352
101304.326
101311.115
101311.5706
101307.887
101307.4719
101310.0281
101308.9434
101303.0023
101297.0928
101295.5605
101302.5297
101305.8851
101302.8197
101298.287
101294.2486
101288.4509
101280.758
101276.8584
101280.2455
101291.7946
101304.6206
101311.8414
101313.1486
101309.9098
101309.0652
101310.3863
101308.5826
101302.7544
101297.1365
101295.7975
101303.1442
101306.1262
101303.2067
101298.2905
101293.5932
101288.2003
101281.9542
101279.3714
101282.5587
101292.1638
101303.205
101310.2549
101312.6874
101310.8101
101310.0785
101309.757
101306.4972
101301.2849
101297.0508
101296.5591
101303.5953
101305.9947
101302.8879
101297.8611
101293.473
101289.5123
101285.4555
101284.2144
101286.3584
101292.4345
101299.9005
101306.0487
101309.9654
101310.8424
101311.5018
101309.8556
101304.7368
101299.9195
101297.2167
101297.4638
101304.1586
101306.0077
101301.856
101296.5658
101293.1097
101291.5891
101290.6942
101290.9013
101291.28
101292.5269
101294.9764
101299.4402
101305.3896
101310.3024
101313.7237
101311.2005
101303.97
101299.2124
101297.9743
101298.4328
101304.986
101306.4873
101300.6973
101294.8593
101292.4797
101293.6945
101296.5848
101298.3643
101296.5935
101292.4142
101289.4055
101291.8595
101299.9043
101309.399
101316.1694
101313.1733
101303.6775
101298.87
101299.107
101299.6333
101305.9392
101307.2809
101299.7894
101293.2676
101291.6281
101295.0303
101301.688
101305.0889
101301.3126
101292.1509
101284.2069
101284.8962
101294.9464
101308.5005
101317.7791
101314.0091
101302.0231
101297.7118
101300.4375
101301.3036
101306.5493
101307.7567
101299.096
101292.1499
101290.7537
101295.4469
101304.9681
101309.8087
101304.7178
101291.9973
101280.5414
101280.0629
101291.7047
101307.7501
101317.8653
101312.5956
101298.4554
101295.1212
101301.4674
101303.1233
101306.3564
101307.034
101298.0913
101291.2945
101290.007
101295.1955
101306.1675
101312.0499
101306.5356
101292.2577
101279.4004
101278.4062
101290.6245
101307.1192
101316.3299
101309.1346
101293.5288
101291.4943
101301.843
101304.4797
101305.373
101305.2637
101296.8876
101290.801
101289.7393
101294.8579
101305.9226
101312.0956
101306.9359
101293.2495
101280.8984
101279.8579
101291.4757
101306.4045
101313.5273
101305.0571
101289.5126
101288.6898
101301.4639
101304.791
101303.9838
101303.1371
101296.1422
101291.3571
101290.6475
101295.0978
101304.7012
101310.2241
101306.0574
101294.8167
101284.6515
101283.8547
101293.5421
101305.3284
101309.9271
101301.8424
101288.4611
101288.411
101300.7322
101304.0028
101302.4296
101301.4693
101296.6021
101293.49
101293.2101
101296.4122
101303.1242
101306.9089
101304.1776
101296.78
101290.0714
101289.5832
101296.0898
101303.5793
101305.8913
101300.0238
101290.8545
101291.0982
101300.0974
101302.5555
101300.8131
101300.2897
101298.2802
101297.0901
101297.0719
101298.4387
101301.0539
101302.473
101301.5033
101298.8555
101296.437
101296.2801
101298.6684
101301.2967
101301.8822
101299.5923
101296.1565
101296.3014
101299.8072
101300.8551
101315.2653
101334.4912
101341.6183
101341.4772
101337.0459
101333.0689
101328.7681
101321.3364
101307.0997
101288.2488
101270.7056
101262.1777
101262.9565
101268.985
101273.6724
101271.0988
101267.7982
101273.4255
101285.9899
101297.2705
101313.9732
101332.4878
101340.0606
101340.7606
101337.1883
101333.1005
101327.922
101319.9671
101305.9499
101288.1091
101271.5261
101263.3139
101263.7773
101269.3964
101274.077
101271.9938
101269.227
101274.5522
101286.3621
101297.1186
101311.9183
101329.0014
101336.8023
101338.6097
101336.5029
101332.5305
101326.0855
101317.4768
101303.9683
101287.9164
101273.1075
101265.5547
101265.7017
101270.8053
101275.6906
101274.6049
101272.4996
101277.0267
101287.1749
101296.8385
101309.8129
101324.8767
101331.7456
101334.111
101333.6552
101330.3372
101323.2072
101314.2261
101301.5813
101287.7805
101275.3008
101268.8449
101268.986
101273.7998
101279.1533
101279.5824
101277.8406
101280.8105
101288.3911
101296.4121
101308.1941
101320.9186
101325.5242
101327.1503
101327.9416
101326.0766
101319.0709
101310.3715
101299.0224
101287.7741
101278.1406
101273.2929
101273.9175
101278.8299
101284.8027
101286.5152
101284.5483
101285.2274
101289.8228
101295.8677
101307.2142
101317.6907
101319.0941
101319.1231
101320.4523
101320.2274
101313.9689
101306.0349
101296.3925
101287.9975
101281.6091
101278.819
101280.2052
101285.1585
101291.2952
101293.7342
101291.4103
101289.4533
101291.1642
101295.2292
101306.6714
101315.2628
101313.7811
101312.0313
101313.2244
101314.1358
101308.4239
101301.4367
101293.8416
101288.4681
101285.557
101284.9476
101286.9298
101291.3736
101296.8889
101299.2714
101296.6982
101292.8027
101292.2495
101294.6411
101306.1083
101313.0474
101310.0527
101307.1162
101307.6249
101308.6769
101303.2938
101297.2904
101291.8154
101289.6742
101289.9638
101291.1499
101292.95
101296.486
101300.7187
101302.2895
101299.6628
101295.1606
101293.4096
101294.6674
101305.2876
101310.698
101307.6573
101304.4123
101303.9314
101304.2175
101299.1791
101294.3641
101290.7875
101290.6806
101292.8536
101295.2219
101297.4176
101300.1834
101302.9482
101303.3101
101300.6214
101296.639
101294.8481
101295.538
101304.1723
101308.035
101305.5776
101302.5571
101301.2594
101300.7555
101296.6206
101293.2747
101291.1431
101291.4921
101294.0919
101296.9736
101299.992
101302.8944
101304.8815
101303.8362
101300.6265
101297.5114
101296.4654
101297.0633
101303.1923
101305.5444
101303.0634
101300.0125
101298.2794
101297.882
101295.9156
101294.5159
101293.0888
101292.2276
101293.1088
101295.964
101300.6219
101305.3405
101307.8539
101305.7076
101301.2715
101298.2813
101297.9023
101298.4407
101302.7658
101303.7885
101300.3609
101296.6728
101294.4207
101295.009
101296.5155
101297.5601
101296.1345
101292.5806
101290.3587
101292.7082
101299.6839
101307.6307
101311.8172
101308.863
101302.3435
101298.7772
101298.7654
101299.3049
101302.9206
101302.9686
101298.3534
101293.4394
101290.52
101292.2055
101297.6654
101301.2605
101299.3617
101292.418
101286.5446
101288.0998
101297.681
101309.4904
101315.8532
101312.3537
101303.2708
101298.8871
101299.0428
101299.6985
101303.2478
101302.9104
101297.6017
101291.4382
101287.28
101289.6952
101298.5954
101304.4043
101301.9283
101292.0907
101283.0759
101283.8647
101295.6307
101310.5532
101318.2612
101314.0613
101302.7079
101297.7921
101299.0689
101300.1364
101303.3094
101303.0745
101298.284
101291.4905
101285.5639
101287.849
101298.8743
101306.1546
101303.3854
101291.9062
101281.2188
101281.8025
101294.7102
101310.5958
101317.8845
101312.6151
101300.2612
101295.5808
101298.9252
101300.9589
101302.8535
101302.8145
101299.7556
101293.2133
101285.6405
101287.1676
101298.6116
101306.479
101303.7772
101292.2466
101281.7782
101282.5167
101295.2278
101309.6299
101314.7597
101308.3127
101296.0261
101292.6275
101298.6547
101302.0018
101302.169
101302.2867
101301.0603
101295.5389
101287.4829
101288.0955
101298.4979
101305.7586
101303.4151
101293.2919
101284.5643
101285.6455
101296.8418
101308.0805
101310.293
101303.0325
101292.1269
101290.3504
101298.3674
101302.579
101301.5413
101301.7344
101301.7175
101297.6372
101290.5644
101290.509
101298.6442
101304.4536
101302.6391
101294.9366
101288.7004
101290.0208
101298.6619
101306.1265
101306.0463
101299.0373
101290.3947
101289.9608
101298.2621
101302.3883
101301.0245
101301.2325
101301.6153
101299.1151
101294.4195
101294.1295
101299.2621
101302.9115
101301.7317
101296.9536
101293.3481
101294.4398
101299.888
101303.8932
101302.6869
101297.4634
101291.7748
101292.0028
101298.521
101301.5262
101300.4223
101300.513
101300.5001
101299.5336
101297.8473
101297.8511
101299.729
101301.0479
101300.6262
101298.9856
101297.8325
101298.3632
101300.2298
101301.3526
101300.4174
101298.2767
101296.2108
101296.5018
101299.2359
101300.4656
101317.6815
101344.4858
101362.1841
101368.8372
101365.8802
101360.2619
101352.8028
101338.8933
101316.3071
101287.8813
101261.7807
101245.706
101241.1432
101244.4758
101248.5121
101248.684
101250.8236
101260.3763
101275.5926
101291.8796
101316.2553
101341.9581
101359.3013
101366.3737
101364.4582
101359.4739
101352.003
101338.0415
101315.6665
101287.7277
101262.26
101246.8205
101242.7667
101246.5569
101251.2747
101252.1932
101254.2078
101262.7771
101276.5883
101291.8429
101314.0879
101337.7953
101353.9153
101361.2037
101360.9563
101357.2616
101350.1561
101336.3765
101314.4152
101287.3067
101262.9649