/*--------------------------------*- C++ -*----------------------------------*\
| =========                 |                                                 |
| \\      /  F ield         | OpenFOAM: The Open Source CFD Toolbox           |
|  \\    /   O peration     | Version:  5.x                                   |
|   \\  /    A nd           | Web:      www.OpenFOAM.org                      |
|    \\/     M anipulation  |                                                 |
\*---------------------------------------------------------------------------*/
FoamFile
{
    version     2.0;
    format      ascii;
    class       volScalarField;
    location    "0.4";
    object      rho;
}
// * * * * * * * * * * * * * * * * * * * * * * * * * * * * * * * * * * * * * //

dimensions      [1 -3 0 0 0 0 0];

internalField   nonuniform List<scalar> 
30538
(
1.288581712
1.289531825
1.289514803
1.289549188
1.289581958
1.289613989
1.289656386
1.289722566
1.289810358
1.289896599
1.289963581
1.289980967
1.289955653
1.289921738
1.289952814
1.290071088
1.290201576
1.290218607
1.290095373
1.28976993
1.288577642
1.289558858
1.289550842
1.289590316
1.289627395
1.28966312
1.289706044
1.289765134
1.289838344
1.289904948
1.289954093
1.289961479
1.289934892
1.289905813
1.289941261
1.29006106
1.290191688
1.290210857
1.290091808
1.289779492
1.288569689
1.289605352
1.289614401
1.289664358
1.289709461
1.289750702
1.289793251
1.289838631
1.289884815
1.289915609
1.289932432
1.289921489
1.289891804
1.289870251
1.289912309
1.290033515
1.290164159
1.290188506
1.290079342
1.289796447
1.2885622
1.289664011
1.289696201
1.289761169
1.289816689
1.289863467
1.289903187
1.289929338
1.289940185
1.289925317
1.289901056
1.289866453
1.289831458
1.289817108
1.28986479
1.289985479
1.290115724
1.29014894
1.290056767
1.289818901
1.288559387
1.289723754
1.289781094
1.289863571
1.289930495
1.289981655
1.290015264
1.290019058
1.289992244
1.28993024
1.289863398
1.289803473
1.289761455
1.289751972
1.289801868
1.289918756
1.290047678
1.290093111
1.290024438
1.289844733
1.288566195
1.289772124
1.289851532
1.289951112
1.290029434
1.290083656
1.290108813
1.290090825
1.290030526
1.289928643
1.289825647
1.289743247
1.289693779
1.289686035
1.289734251
1.289844156
1.289970199
1.290029184
1.289986829
1.289869228
1.288586773
1.289799948
1.289893163
1.290005199
1.290092907
1.29014912
1.290166075
1.29013137
1.290048374
1.289921389
1.289795311
1.289698082
1.289642626
1.28963365
1.28967711
1.289778299
1.289900003
1.289970611
1.289951406
1.289889789
1.288625221
1.289804226
1.289899375
1.290015365
1.290107289
1.290163135
1.290173582
1.290130927
1.290041001
1.289909245
1.289778946
1.289678492
1.289619743
1.289606844
1.289643588
1.289736287
1.289853038
1.289930161
1.289926039
1.289902966
1.28868364
1.28978871
1.289873036
1.28998185
1.290070052
1.290120896
1.290126082
1.290085536
1.2900063
1.289893141
1.289780644
1.289690581
1.289631997
1.289612277
1.289640464
1.289725601
1.289837112
1.289913926
1.289914238
1.289906656
1.288761866
1.289759394
1.289823638
1.289914864
1.289989387
1.290028495
1.290027645
1.289997029
1.289945128
1.289874262
1.289801745
1.289734793
1.289679371
1.28964944
1.289666275
1.289743646
1.289849347
1.289918411
1.289913177
1.289900115
1.288855795
1.28972214
1.28976054
1.289827573
1.289879202
1.289898765
1.28988902
1.289873373
1.289863202
1.289854415
1.289840785
1.289807034
1.289756926
1.289713672
1.289715068
1.289782648
1.289881535
1.289937011
1.289918359
1.289883821
1.288961126
1.289681201
1.289694184
1.289733571
1.289756618
1.289750713
1.289729024
1.289730324
1.289770586
1.289836435
1.289892896
1.289898403
1.289854563
1.289796694
1.289780737
1.289836044
1.289926576
1.289963581
1.289924566
1.289859161
1.289069649
1.289642054
1.289634097
1.289646588
1.289640086
1.289606957
1.28957134
1.289588688
1.289680469
1.28982195
1.289949619
1.289995305
1.289958134
1.28988643
1.289854679
1.289897351
1.289978389
1.289993013
1.289928599
1.289826572
1.289180491
1.289612142
1.289588332
1.289578022
1.289544908
1.28948751
1.289438508
1.289469338
1.289606457
1.289811867
1.290000445
1.290081899
1.290052152
1.289970548
1.289927698
1.289960872
1.2900329
1.290023817
1.289929302
1.289794144
1.289287691
1.289598736
1.289565156
1.289536717
1.289482889
1.289408012
1.289349593
1.289390241
1.289558785
1.289807127
1.290035422
1.29014274
1.290120405
1.290035796
1.289990228
1.290018422
1.290083686
1.290052587
1.289927909
1.289761632
1.289392341
1.289606167
1.289569636
1.289529771
1.28946303
1.289379878
1.289317872
1.28936225
1.289541342
1.289804876
1.290046164
1.290165927
1.290149829
1.290070895
1.290031708
1.29006004
1.290119398
1.29007069
1.289924276
1.289740494
1.289485947
1.28963295
1.289599027
1.289554735
1.289484588
1.289403411
1.289344389
1.289387698
1.289556226
1.289802327
1.290028624
1.290144376
1.290133629
1.290067577
1.290040485
1.290071405
1.290122806
1.290065326
1.289915147
1.289724817
1.289576087
1.289671241
1.289644546
1.289604402
1.289542118
1.289473259
1.289424767
1.289460594
1.289596772
1.289796229
1.289980978
1.290077344
1.290071102
1.290021887
1.290006996
1.290037054
1.290078638
1.290024744
1.289893057
1.28972905
1.289650816
1.289711257
1.289694643
1.289666352
1.289623266
1.289576865
1.289543975
1.28956665
1.289654906
1.289784951
1.289905352
1.289968864
1.289966511
1.289936952
1.28993097
1.289953175
1.289980485
1.289942423
1.289851689
1.289733702
1.289653759
1.289595829
1.289444163
1.289394401
1.289304335
1.289314755
1.289280065
1.289281776
1.289233056
1.289198262
1.289182668
1.289207933
1.289304027
1.289381925
1.289504983
1.289524081
1.289620475
1.28960867
1.28972936
1.289694614
1.288395323
1.289590446
1.28955899
1.28957061
1.289573489
1.289555073
1.289535326
1.289574726
1.289691798
1.289861893
1.290008743
1.290067152
1.290039287
1.289987583
1.289989718
1.290067381
1.290148036
1.290131674
1.290014816
1.289956819
1.288392693
1.289608428
1.289584734
1.289600399
1.289605165
1.289588755
1.289569127
1.289603791
1.289710944
1.289867324
1.290001883
1.290053373
1.29002461
1.289974996
1.289978743
1.290056303
1.290137223
1.290124324
1.290012639
1.289966195
1.288387519
1.289637678
1.289629103
1.289653088
1.289662195
1.289649094
1.28962895
1.289654351
1.289743012
1.289873746
1.289985558
1.290024007
1.28999313
1.28994706
1.289953024
1.290029987
1.290111638
1.290105639
1.29000428
1.289981765
1.28838301
1.289673292
1.289685455
1.289722027
1.289737705
1.289727858
1.289705764
1.289718336
1.289782685
1.289880059
1.289962173
1.289983308
1.289948763
1.289906271
1.289914031
1.289989851
1.290073003
1.290076706
1.289990025
1.290002171
1.288383444
1.289708797
1.289743663
1.289795465
1.289819266
1.289811372
1.289785912
1.289784133
1.289822349
1.289884296
1.289934244
1.289936294
1.289896907
1.289857033
1.289865537
1.289938806
1.290023677
1.290039395
1.289970609
1.290024751
1.288394184
1.289738761
1.289793228
1.289859248
1.289891434
1.28988444
1.289855246
1.289840419
1.289855195
1.289885303
1.289905781
1.289890146
1.289845844
1.289807556
1.289815835
1.289885485
1.289971612
1.289999609
1.289949118
1.290045614
1.288419743
1.289759386
1.289825268
1.289900331
1.289938679
1.289932755
1.289901599
1.289878092
1.289876038
1.289882953
1.289881432
1.28985295
1.289805082
1.289767866
1.289775385
1.289841061
1.289927062
1.289964278
1.289929453
1.290062729
1.288464708
1.289769473
1.28983559
1.28991106
1.289950929
1.289946199
1.289915588
1.289889307
1.289879867
1.289876721
1.289865067
1.289831363
1.289782507
1.289746097
1.289752574
1.289814209
1.289897707
1.289939047
1.289914212
1.29007163
1.288529919
1.289769563
1.289825217
1.28989196
1.289927114
1.28992222
1.28989327
1.289869864
1.289863942
1.289865921
1.289859081
1.289829314
1.289782174
1.289745481
1.289749798
1.289806864
1.289885272
1.289924686
1.289902959
1.290070128
1.288614615
1.289761206
1.2897992
1.289850192
1.289875417
1.289866951
1.289838356
1.289821344
1.289828936
1.289851227
1.289864024
1.28984655
1.289803029
1.28976374
1.28976355
1.289814566
1.289886165
1.289918637
1.289894177
1.290056598
1.288714769
1.289746341
1.289763555
1.289795661
1.289807697
1.28979066
1.289758945
1.289749735
1.289778837
1.289834565
1.289879494
1.28988102
1.289841709
1.289796723
1.289789874
1.289833287
1.289897212
1.289918698
1.289887059
1.290033828
1.288826857
1.289725663
1.289724185
1.289737397
1.289735438
1.289706772
1.289668039
1.289666701
1.28972161
1.289818303
1.289902791
1.289926908
1.289892092
1.289840011
1.289823787
1.289858559
1.289914576
1.289922654
1.289880739
1.290001555
1.288943811
1.289702885
1.289685934
1.28968315
1.289668944
1.289628543
1.28958045
1.289585779
1.289666424
1.289804392
1.289929256
1.28997598
1.289946428
1.289887542
1.289862379
1.289887576
1.289935045
1.289929244
1.289873772
1.28996322
1.289064905
1.28968354
1.289654307
1.289639175
1.289615183
1.289565811
1.289509224
1.289519491
1.289621683
1.289793401
1.289951366
1.29001794
1.289994482
1.289932594
1.289903126
1.289919647
1.28995738
1.289936952
1.289865943
1.289922268
1.289183993
1.289672809
1.289634704
1.28961011
1.289579226
1.28952482
1.289464302
1.289478088
1.289593764
1.289784704
1.289961657
1.290042445
1.290026012
1.289967642
1.28993946
1.289950528
1.289978461
1.28994369
1.289856675
1.289879518
1.289303485
1.289673604
1.289630853
1.289600015
1.289565476
1.289510836
1.289451682
1.289467352
1.28958466
1.289776376
1.289954896
1.290041733
1.290033103
1.289984264
1.2899636
1.289972615
1.289991916
1.289945051
1.289846014
1.28984272
1.28941388
1.289684972
1.289642866
1.28960989
1.289575051
1.289524792
1.28947198
1.289487465
1.289594689
1.289768084
1.289930329
1.290013659
1.290012108
1.289976481
1.289966582
1.289976894
1.289987813
1.289935119
1.289833978
1.28980797
1.289521937
1.28970456
1.289669095
1.289639637
1.289608712
1.289567447
1.289525085
1.289538338
1.289624704
1.289762553
1.289892091
1.289961253
1.28996401
1.289941635
1.289941231
1.289952283
1.289957306
1.28990736
1.289818525
1.289788961
1.289617713
1.289727506
1.289704022
1.289683425
1.289661615
1.289634104
1.289606759
1.289615769
1.289671559
1.289760209
1.289843487
1.289889068
1.289892855
1.289881853
1.289886226
1.289895189
1.289896716
1.289860422
1.289799036
1.289770261
1.289594226
1.289530429
1.289309078
1.289255364
1.289109649
1.289133671
1.289085199
1.289140611
1.289136625
1.289176569
1.289228635
1.289304539
1.289447569
1.289530386
1.289688345
1.289685615
1.289811715
1.289733652
1.289844413
1.289725876
1.288060854
1.289699724
1.289641224
1.289616143
1.289597309
1.289533468
1.289444248
1.289445731
1.289574872
1.289796567
1.289998769
1.290084789
1.290065955
1.290003561
1.289985131
1.290011172
1.290022205
1.289979488
1.289890057
1.290328443
1.288060428
1.289705529
1.289654385
1.289634106
1.289615002
1.289548409
1.289457359
1.289455887
1.289581509
1.289798843
1.289997272
1.290080997
1.290060268
1.289995475
1.289973184
1.289997099
1.290010512
1.28997267
1.289889
1.29033618
1.288058268
1.289712319
1.289674767
1.289663308
1.289644034
1.289573495
1.2894798
1.289473263
1.289592192
1.289800822
1.289991692
1.290071046
1.290046979
1.289977959
1.289949575
1.289970749
1.289989041
1.289959462
1.289884815
1.290349461
1.288058881
1.289718368
1.289698501
1.28969929
1.289680779
1.289606266
1.289510403
1.289498045
1.289607795
1.28980396
1.289983716
1.290056958
1.290028494
1.289955242
1.289921225
1.289940806
1.289965758
1.289945527
1.289880443
1.290364166
1.288064703
1.289721912
1.289721137
1.289735588
1.289718084
1.28964119
1.289544953
1.289527338
1.28962659
1.289808014
1.289973976
1.290039593
1.290006233
1.289930449
1.289893196
1.28991308
1.289945915
1.2899338
1.28987693
1.290380039
1.28808378
1.289725167
1.289740798
1.289766069
1.289748229
1.289671162
1.289578093
1.289557478
1.289646281
1.289812108
1.289962935
1.290020273
1.289983172
1.289907827
1.289871016
1.289893511
1.289933267
1.289926782
1.289875179
1.29039138
1.288118583
1.289732248
1.289757083
1.289785785
1.289765558
1.289690843
1.289604787
1.289584602
1.289664312
1.289814868
1.289950999
1.290000862
1.289963221
1.289891626
1.28985857
1.289884526
1.289927775
1.28992387
1.289874312
1.290397808
1.288175733
1.289744525
1.289769964
1.289793304
1.289768567
1.289698108
1.289621606
1.289604814
1.289677735
1.289814725
1.289937912
1.289982851
1.289948364
1.289883697
1.289855389
1.289882538
1.28992411
1.289919203
1.289870556
1.290395657
1.288253449
1.289760362
1.289777658
1.289789457
1.289760479
1.289694358
1.289627301
1.289615572
1.289684493
1.289810554
1.289923675
1.289966479
1.289937665
1.28988165
1.289857026
1.28988123
1.28991658
1.289908054
1.28986141
1.290382668
1.288350252
1.289773892
1.289779466
1.289777419
1.289745382
1.289684534
1.28962531
1.289618879
1.289684827
1.289802353
1.28990855
1.289950835
1.289928804
1.289882021
1.289861539
1.289880001
1.289905644
1.289891074
1.289846777
1.290356444
1.288462897
1.289781482
1.289774418
1.289760256
1.289728418
1.289674517
1.289620274
1.289617558
1.289679905
1.28979103
1.289892715
1.289935164
1.289919627
1.289881401
1.289866205
1.289878288
1.289892543
1.289872716
1.289829892
1.290318489
1.288586927
1.289783109
1.289763031
1.289740569
1.289714186
1.289668817
1.289617771
1.289615915
1.289673348
1.289779209
1.289876813
1.289919404
1.28990932
1.289879008
1.289870941
1.289878148
1.289881361
1.289857492
1.289815621
1.290271044
1.288722128
1.289780984
1.289748178
1.289720645
1.289703541
1.289668287
1.289620959
1.289617875
1.289669042
1.28976834
1.289861468
1.289904054
1.289899245
1.289877962
1.289877027
1.289878532
1.289870611
1.289844032
1.28980544
1.290215595
1.288863107
1.289776306
1.289731694
1.289701347
1.289694584
1.289670263
1.289627809
1.289623787
1.289668149
1.289758259
1.289844863
1.289887354
1.289889391
1.289879558
1.289885326
1.289879677
1.289859558
1.289829702
1.289797718
1.290159521
1.28900893
1.289770402
1.289714981
1.289682802
1.289685228
1.289671851
1.289635368
1.289631846
1.289669647
1.289747685
1.289824394
1.289866325
1.289877567
1.289880944
1.289894741
1.289880125
1.289845131
1.28981194
1.289787814
1.29009436
1.289154483
1.289762712
1.289699134
1.289666776
1.289675789
1.289671534
1.289642423
1.289640878
1.289672424
1.289736427
1.289800736
1.28984086
1.289861399
1.289878214
1.289899709
1.289878489
1.289829043
1.289791951
1.289774339
1.290031792
1.289296475
1.289753935
1.289688005
1.289657519
1.289670175
1.289672465
1.289652004
1.289653187
1.289678178
1.289726036
1.28977669
1.289813411
1.289840693
1.289867982
1.289894789
1.289871321
1.289813155
1.289773671
1.289759952
1.289960798
1.28943439
1.289748147
1.28968959
1.289663659
1.289676074
1.289681465
1.289669603
1.289672012
1.289690529
1.289723963
1.289759699
1.289789295
1.289817163
1.289847822
1.289874696
1.289853702
1.289798266
1.289761626
1.289751112
1.289902523
1.289565736
1.289748478
1.289707325
1.289689441
1.289698569
1.289704007
1.2896988
1.289701516
1.289713068
1.289732345
1.289753252
1.289772638
1.289793966
1.28981846
1.289839515
1.289825296
1.289784946
1.289757626
1.289750379
1.289838673
1.289520053
1.28940097
1.28911379
1.289006668
1.288822385
1.288818043
1.288792072
1.288892452
1.28898893
1.289136734
1.28930257
1.289467571
1.289662329
1.28978493
1.289953518
1.289973767
1.290083834
1.289963516
1.289992844
1.289802013
1.287383744
1.289835809
1.289768741
1.289712276
1.28968433
1.289617537
1.289515934
1.289495632
1.28956699
1.28972206
1.289867996
1.289934447
1.289936956
1.289912421
1.289908908
1.289891819
1.289842507
1.289804459
1.289787076
1.29100771
1.287383247
1.289830916
1.289772174
1.289723463
1.289695242
1.289622206
1.289513748
1.289489836
1.289562763
1.289722667
1.289873566
1.28994099
1.289939316
1.289907142
1.289895895
1.289876648
1.289832867
1.289799809
1.28978597
1.291018007
1.287380531
1.289818056
1.289773402
1.289737294
1.289709241
1.28962676
1.289507934
1.289477961
1.289553731
1.289722251
1.289881766
1.289950876
1.289942045
1.289897373
1.28987505
1.289854418
1.289820941
1.28979488
1.289783361
1.291034104
1.287382588
1.289798818
1.28976915
1.289748014
1.28972073
1.289629677
1.28950144
1.289465525
1.289544863
1.289723609
1.28989294
1.289964338
1.289947508
1.289889329
1.289857456
1.289839847
1.289819642
1.289798453
1.289783798
1.291050902
1.287391426
1.289777182
1.28975924
1.289750546
1.289723701
1.289627349
1.289495324
1.289456587
1.289539611
1.289727069
1.289905332
1.289979398
1.28995601
1.289886978
1.28984958
1.289840281
1.289834968
1.28981353
1.289788284
1.29106526
1.28741761
1.289760091
1.289749448
1.289746046
1.289716509
1.289618815
1.289491136
1.289454185
1.289539896
1.289732209
1.289916197
1.289993081
1.289966136
1.289891865
1.289854486
1.289857149
1.289864398
1.289837102
1.289795928
1.291071444
1.28746446
1.289754554
1.289747023
1.289740246
1.289703477
1.28960722
1.289490907
1.289459323
1.289545941
1.289737364
1.289922015
1.290001662
1.289975298
1.289902032
1.289867636
1.289880195
1.289893899
1.289858155
1.289803162
1.291067556
1.287539173
1.289762161
1.289753677
1.289738376
1.289692499
1.28959901
1.289496344
1.289472364
1.289557449
1.289741019
1.289919516
1.290000575
1.289979187
1.289911257
1.289879463
1.289894895
1.289907498
1.28986596
1.289804441
1.291050269
1.287638595
1.289778747
1.289767079
1.289740172
1.289686062
1.289598449
1.289510274
1.289494464
1.289574283
1.28974172
1.289906138
1.289985535
1.289972838
1.28991504
1.28988715
1.289897509
1.289901133
1.289856679
1.289797594
1.291018393
1.287764055
1.289796672
1.289779992
1.289742843
1.289686223
1.28960873
1.28953594
1.289527636
1.289597345
1.289739399
1.289880923
1.289954548
1.289953123
1.289911096
1.289889756
1.289890201
1.289878961
1.289834123
1.289784129
1.290966046
1.287909665
1.289809942
1.289786363
1.289743598
1.289692832
1.289631548
1.289575414
1.289572472
1.289626384
1.28973476
1.28984433
1.289908124
1.289918531
1.289898429
1.289890217
1.289882039
1.289854557
1.289810065
1.289770108
1.29089801
1.288073837
1.289819169
1.289785774
1.289740243
1.289702012
1.289664024
1.289627045
1.289627421
1.289660584
1.289729349
1.289800732
1.289850632
1.289873148
1.289879623
1.289892214
1.28987862
1.289835264
1.289791061
1.289763061
1.290808774
1.288256454
1.289827294
1.2897801
1.289733412
1.289712991
1.289700797
1.2896837
1.289686763
1.289697397
1.289723953
1.289755416
1.289788972
1.289823735
1.289858431
1.28989538
1.289877248
1.289818672
1.28977682
1.289764443
1.290712769
1.288453251
1.289833484
1.28977052
1.289722329
1.289720022
1.289732535
1.289735834
1.289742307
1.289731626
1.289718267
1.289712113
1.289730549
1.28977807
1.289840742
1.289897421
1.289871891
1.289795192
1.289759195
1.289769861
1.290603216
1.288659689
1.289833939
1.289755833
1.289707526
1.289719156
1.289749847
1.289772904
1.289783557
1.2897572
1.289711777
1.289674904
1.28968295
1.289742094
1.289828814
1.289896362
1.289858651
1.289760922
1.28973263
1.289771588
1.290489269
1.288866504
1.289823348
1.289735341
1.289689105
1.289710678
1.289752405
1.289790526
1.2898061
1.289771673
1.289706391
1.289650216
1.289652009
1.289719921
1.289820489
1.289889942
1.28983892
1.289722728
1.289700753
1.289765678
1.290365864
1.28907211
1.289803269
1.289713106
1.289671795
1.289698999
1.289745333
1.289791698
1.289811256
1.289775929
1.289704047
1.289641076
1.289640206
1.289710845
1.289812513
1.289876491
1.28981775
1.289694565
1.289676699
1.289754826
1.290232919
1.289271781
1.289781601
1.289700993
1.289667874
1.289695265
1.289738683
1.289783876
1.289803693
1.28977383
1.289709372
1.28965245
1.289650902
1.289713819
1.289802298
1.289853417
1.289798774
1.289688306
1.289673886
1.289746623
1.290100449
1.289469292
1.289766746
1.289709136
1.28968687
1.289707583
1.289740016
1.289773577
1.289788443
1.289768771
1.28972468
1.289685006
1.289683707
1.28972784
1.289788633
1.289822018
1.289783236
1.289705549
1.2896953
1.289746725
1.289961447
1.28934714
1.289240674
1.288724112
1.288634142
1.288271285
1.2883359
1.28823514
1.288480713
1.288665197
1.289013216
1.28935097
1.289656423
1.290003325
1.290145844
1.290451842
1.290379441
1.290594708
1.290244922
1.290290628
1.289829209
1.286514443
1.289965038
1.289940982
1.289888667
1.289858059
1.289809831
1.289745274
1.289708447
1.289681409
1.289673581
1.289666489
1.289670202
1.289688468
1.289719844
1.289747878
1.289713866
1.289646636
1.289648188
1.289710582
1.291895901
1.286512739
1.28995332
1.289937229
1.289894191
1.289866837
1.289812016
1.289737343
1.289694897
1.289671324
1.289674154
1.28967706
1.289682962
1.289695699
1.289717513
1.289738561
1.289705621
1.28964503
1.289649487
1.289711364
1.291908836
1.286505626
1.289928631
1.289923805
1.28989472
1.289872778
1.289809183
1.289719395
1.289668636
1.289651792
1.289673528
1.289694545
1.289704925
1.289709114
1.289715874
1.289727682
1.289699149
1.289650019
1.289656266
1.289711936
1.291937023
1.286509899
1.289895791
1.289897821
1.28988231
1.289867221
1.289797119
1.289695096
1.289637073
1.28962915
1.289673917
1.289717914
1.289735609
1.289731792
1.289722352
1.289727099
1.289709105
1.289673326
1.289675558
1.289715853
1.291958996
1.286521386
1.289862104
1.289861263
1.289852278
1.289842301
1.289772876
1.289667221
1.289606272
1.28960804
1.289675403
1.289743908
1.289771903
1.289763622
1.28974186
1.289744062
1.289741428
1.289718194
1.289708059
1.28972273
1.291985023
1.286559533
1.289834096
1.289824397
1.289811927
1.289802015
1.28973895
1.289638968
1.289579956
1.289591164
1.289677768
1.289768911
1.289809306
1.289801519
1.289772996
1.289775175
1.289788353
1.289774261
1.289745874
1.289729578
1.291988949
1.286619148
1.289817577
1.289798602
1.289776109
1.28976021
1.289703732
1.289613298
1.289559994
1.289580149
1.289680887
1.289789721
1.289842462
1.289839272
1.289807247
1.28980725
1.289831064
1.28982175
1.289776419
1.289735268
1.291981346
1.28671367
1.289812476
1.289787622
1.289754338
1.289728839
1.289675551
1.289594874
1.289549606
1.289576775
1.289685028
1.289802671
1.289864249
1.289868361
1.289834958
1.289831194
1.289854374
1.289844522
1.289790666
1.289737516
1.291950242
1.286839009
1.289814338
1.289789014
1.289747887
1.289711283
1.289658732
1.289588962
1.289553597
1.289584312
1.289689043
1.289805342
1.289870834
1.28988267
1.289853302
1.28984564
1.289857618
1.289841255
1.289788416
1.28973781
1.291894166
1.286997112
1.289816828
1.289792524
1.289747924
1.289705339
1.289656451
1.289599809
1.289576387
1.289605291
1.289692391
1.289792506
1.289856449
1.289878488
1.289861467
1.289854829
1.289851911
1.289822347
1.289775092
1.289736934
1.291813485
1.287188936
1.289815984
1.289789631
1.289744032
1.289704249
1.289668346
1.289631561
1.289620305
1.289639747
1.289694845
1.289762542
1.289818305
1.289853811
1.289861763
1.289867736
1.289852805
1.289806384
1.289762708
1.28973835
1.29169414
1.287405772
1.289816435
1.289780275
1.289732293
1.289700962
1.289687181
1.289679062
1.289680943
1.289684377
1.28969568
1.289717892
1.28975838
1.289812317
1.28985687
1.289887888
1.289865005
1.289799434
1.289756302
1.289745152
1.291550025
1.287657749
1.289821063
1.28976977
1.289716823
1.289695253
1.289706272
1.289732475
1.289748618
1.289732561
1.289694653
1.289667374
1.289689637
1.289762576
1.289848678
1.289910067
1.289882895
1.289796784
1.289753201
1.289755396
1.291373018
1.287922159
1.289828471
1.289761539
1.289702393
1.289687529
1.289718382
1.289778748
1.289809594
1.289775351
1.289692263
1.289620229
1.289626493
1.289717619
1.289840531
1.289924666
1.289890477
1.289781786
1.289742699
1.289767497
1.291190473
1.288210645
1.289833004
1.289755251
1.289692261
1.289679606
1.289722166
1.289808501
1.289852399
1.289806231
1.28969087
1.289586988
1.289582663
1.289688226
1.289833733
1.28992545
1.289877664
1.289749438
1.289719206
1.289776878
1.290985452
1.288489788
1.289826661
1.289746139
1.289684503
1.289672832
1.289719882
1.289819376
1.28987272
1.289822715
1.289693233
1.289576642
1.289567637
1.289678431
1.289828013
1.289911527
1.28984628
1.289704765
1.289686314
1.289780285
1.290786298
1.288782693
1.289810813
1.289735223
1.289680025
1.289670403
1.289716819
1.289817156
1.289873134
1.289826345
1.289702229
1.289590228
1.2895808
1.289686148
1.289821529
1.289886114
1.289809306
1.289668345
1.289660883
1.289776824
1.2905615
1.289060275
1.289791703
1.28972847
1.289685078
1.289678649
1.289719004
1.289806089
1.289856169
1.289818383
1.289716446
1.289624266
1.289617045
1.289704887
1.289811768
1.289853467
1.289780154
1.289658809
1.289658353
1.289770148
1.290344837
1.289346602
1.289776448
1.289731836
1.289703271
1.289700255
1.289729288
1.28979021
1.289824979
1.289800685
1.289734026
1.289673296
1.289668992
1.289728209
1.289796331
1.289817414
1.28976422
1.289680868
1.28968297
1.289764448
1.290106427
1.289210779
1.288987521
1.288324219
1.288105625
1.287692816
1.287698094
1.287675536
1.287985295
1.288343802
1.288847893
1.289373235
1.289847984
1.290315409
1.290596896
1.290949657
1.290954584
1.291098061
1.290673121
1.290549031
1.289963654
1.285129316
1.290068451
1.290139486
1.29013816
1.29009798
1.290061944
1.290022863
1.28995553
1.289826437
1.289655511
1.289496529
1.289419105
1.289426146
1.28948081
1.28952332
1.289499984
1.289470072
1.289521088
1.28963482
1.293267668
1.285116838
1.290051642
1.290126716
1.29013303
1.290100639
1.290063579
1.290016601
1.289944484
1.289817405
1.289655584
1.289505246
1.289430766
1.289434938
1.289485912
1.289528392
1.289509482
1.289484414
1.289532677
1.289640472
1.293304402
1.285090073
1.29002002
1.290097172
1.290113528
1.290094423
1.290058404
1.289999952
1.289921901
1.289799438
1.289653839
1.28951959
1.289451086
1.289452391
1.289498679
1.289543021
1.289533157
1.289514087
1.289555114
1.289647771
1.293375675
1.285075765
1.289982609
1.290051318
1.290072737
1.290068604
1.290038509
1.289973852
1.289892423
1.289777793
1.289652608
1.289539483
1.289480924
1.289482185
1.289525844
1.289574418
1.289578287
1.289562522
1.289589423
1.289658723
1.293456762
1.285070803
1.289946736
1.289994898
1.290009623
1.290016793
1.289999867
1.28993634
1.289857475
1.289754591
1.289652556
1.289565237
1.289521258
1.289526906
1.289571463
1.289625649
1.28964116
1.289623349
1.289629473
1.289671606
1.293545982
1.285105278
1.289917579
1.289936585
1.289936833
1.289948875
1.289946823
1.289890074
1.289818148
1.289730742
1.289654586
1.289596693
1.289571371
1.289583933
1.289628851
1.289684548
1.289706628
1.289685572
1.289667791
1.289683646
1.29360285
1.28517093
1.28989576
1.289888409
1.289872526
1.289883326
1.289891591
1.289839789
1.289776455
1.289707607
1.289658863
1.289632493
1.289626944
1.289644917
1.289685207
1.289735276
1.289756832
1.289733517
1.289698168
1.289693322
1.293633322
1.2852874
1.28987601
1.289854601
1.289827955
1.289832543
1.289842094
1.289793276
1.289738866
1.289689229
1.289669811
1.289672454
1.289683183
1.289699512
1.289731565
1.289770001
1.289784199
1.289760398
1.289719546
1.289703683
1.293604027
1.285448632
1.289855174
1.289832879
1.289803431
1.28979905
1.289801661
1.289755971
1.289712329
1.289679906
1.289678943
1.289698656
1.289720108
1.289740024
1.289765096
1.289790211
1.289793456
1.289769094
1.289732948
1.289716567
1.293525639
1.285666044
1.28983163
1.289814025
1.289786616
1.289774829
1.289770276
1.28973277
1.289702449
1.289683135
1.289686297
1.289709883
1.289735993
1.289763366
1.289789681
1.289807735
1.289798221
1.289769137
1.289740859
1.289731095
1.293377168
1.285937575
1.289809742
1.289791227
1.289763545
1.289747818
1.289744223
1.289726377
1.28971371
1.289700778
1.289692966
1.289700965
1.289726845
1.289769085
1.28981187
1.289834684
1.289815195
1.289774987
1.289747842
1.289743998
1.2931709
1.286260264
1.28979455
1.289766721
1.289733266
1.289712834
1.289718175
1.289731826
1.289741319
1.289728396
1.289696168
1.289676018
1.289697325
1.28976058
1.289832642
1.289870617
1.289843815
1.289784715
1.289752348
1.289751761
1.292884831
1.286630884
1.289787775
1.289748516
1.289703951
1.289677471
1.289692757
1.28974226
1.289774878
1.289757659
1.28969469
1.289641429
1.289655538
1.289742417
1.289849506
1.289907217
1.289875473
1.289793123
1.289753351
1.28975432
1.292566091
1.287026059
1.289787807
1.289741703
1.289685809
1.289648092
1.289669997
1.2897507
1.289803387
1.289780933
1.28969172
1.289609972
1.289617135
1.289723825
1.289859143
1.289929049
1.289890962
1.289788019
1.289743425
1.289754745
1.292191021
1.287448116
1.289789802
1.289747895
1.289686293
1.289632545
1.289653264
1.289753235
1.289819266
1.289794151
1.289690046
1.289593132
1.289598435
1.289715479
1.289859535
1.289925632
1.289877847
1.289765825
1.289723369
1.289753581
1.29182743
1.287862475
1.289787894
1.289761239
1.289701914
1.289633237
1.289647084
1.289750858
1.28982221
1.289797703
1.289693133
1.289598207
1.289604913
1.289720175
1.28985078
1.289897301
1.289838835
1.289727423
1.289696586
1.289751227
1.291442882
1.288294895
1.289783516
1.289773067
1.289723
1.289649943
1.289655495
1.289749826
1.289815674
1.289794419
1.289702614
1.289623476
1.289633286
1.289734807
1.289836731
1.289856793
1.289790952
1.289692064
1.289675941
1.28974867
1.291073339
1.288711094
1.289778827
1.289779035
1.289742039
1.289677899
1.289677392
1.289751164
1.289803846
1.289787387
1.289717533
1.289660987
1.289672961
1.289751311
1.289819008
1.289818279
1.28975472
1.289676349
1.289672404
1.289747725
1.290694958
1.289137894
1.289774087
1.289776531
1.289753432
1.289709689
1.289707336
1.289753718
1.289787852
1.289777931
1.289735446
1.289703005
1.289713103
1.289762763
1.289799273
1.2897883
1.289741051
1.289689057
1.289691214
1.289750019
1.290321338
1.288882431
1.288716003
1.287545221
1.287378558
1.286579035
1.286774597
1.28659699
1.287232216
1.287710814
1.288545235
1.289334408
1.29006394
1.290870978
1.291243759
1.291948991
1.291743642
1.292106476
1.291173044
1.291158071
1.28999715
1.283573378
1.290154211
1.29032599
1.29038621
1.290359415
1.290308494
1.290240791
1.290114712
1.289909934
1.289652162
1.289415625
1.289269672
1.289228308
1.289258548
1.289295125
1.2892967
1.289316106
1.289402742
1.289538893
1.294933942
1.283543531
1.290132558
1.290301208
1.290365243
1.290347906
1.290302707
1.290234992
1.290108372
1.289905522
1.289652132
1.289421209
1.289281186
1.2892444
1.289278815
1.28932159
1.289329912
1.289348172
1.28942588
1.289551144
1.295003704
1.283472656
1.290094613
1.290252375
1.29031837
1.290316154
1.290282646
1.290218244
1.290093269
1.289894171
1.289648314
1.289427606