/*--------------------------------*- C++ -*----------------------------------*\
| =========                 |                                                 |
| \\      /  F ield         | OpenFOAM: The Open Source CFD Toolbox           |
|  \\    /   O peration     | Version:  5.x                                   |
|   \\  /    A nd           | Web:      www.OpenFOAM.org                      |
|    \\/     M anipulation  |                                                 |
\*---------------------------------------------------------------------------*/
FoamFile
{
    version     2.0;
    format      ascii;
    class       volScalarField;
    location    "5.2";
    object      p;
}
// * * * * * * * * * * * * * * * * * * * * * * * * * * * * * * * * * * * * * //

dimensions      [1 -1 -2 0 0 0 0];

internalField   nonuniform List<scalar> 
30538
(
101314.8598
101308.4858
101308.0839
101308.4499
101314.6184
101304.0157
101306.2968
101304.1112
101314.199
101318.7669
101308.8066
101297.7982
101292.0168
101293.7862
101292.2504
101286.9105
101278.5664
101274.2478
101277.9416
101289.2435
101310.2467
101303.7598
101308.8083
101310.6754
101314.9836
101305.7496
101306.5911
101302.7695
101310.7617
101317.1301
101310.8178
101300.2893
101292.1711
101292.4493
101292.2433
101289.2183
101281.6152
101276.8918
101279.9116
101290.205
101303.1298
101296.6061
101307.6548
101311.9079
101313.4553
101305.6517
101306.5243
101301.3831
101305.7908
101314.2108
101313.7615
101304.4711
101293.0089
101291.2736
101293.4338
101293.8481
101286.9323
101280.4114
101282.1715
101291.2881
101296.8094
101290.4536
101304.6577
101309.8949
101309.3725
101301.5541
101304.5777
101300.561
101301.7475
101310.4409
101315.6066
101308.1238
101294.8842
101291.9155
101296.4964
101300.1461
101293.5273
101284.315
101283.9034
101291.9823
101295.0117
101288.9328
101299.7914
101304.7145
101303.1438
101294.3385
101300.1548
101299.7055
101299.7273
101306.4622
101313.7618
101309.0741
101297.6104
101295.2185
101301.0349
101306.3141
101300.0369
101289.0117
101285.8205
101292.6129
101298.4973
101293.078
101293.7496
101297.1097
101296.2385
101286.3824
101293.3458
101298.1279
101300.0033
101302.6215
101307.6906
101306.8246
101301.5239
101301.3738
101305.8684
101310.4611
101305.3115
101295.0249
101289.5725
101293.8098
101304.9496
101300.0297
101287.1385
101288.1
101290.3745
101280.6641
101285.5493
101295.2954
101301.3992
101299.061
101299.1916
101302.4129
101307.2728
101309.9331
101310.2864
101312.368
101308.8767
101302.1623
101295.9693
101296.0657
101309.1689
101304.3262
101281.8305
101280.2189
101286.671
101279.6677
101279.8572
101290.9437
101301.8019
101296.0831
101291.926
101299.3505
101314.3752
101319.3428
101314.504
101312.7542
101311.0102
101309.2833
101303.9837
101299.2527
101307.3014
101302.2863
101280.4311
101275.4938
101284.7676
101283.0416
101278.0095
101285.9429
101298.9685
101294.5859
101290.1519
101299.2581
101320.4172
101327.0229
101318.7393
101313.4504
101312.4647
101314.8163
101311.0311
101302.1995
101300.4337
101295.5806
101283.5786
101275.5251
101283.568
101287.3775
101279.9592
101280.8118
101292.6615
101294.199
101294.8768
101302.3729
101322.8137
101330.6714
101323.4064
101316.9483
101314.8753
101317.5506
101313.8786
101303.5227
101294.0084
101290.0995
101288.7528
101278.2377
101279.9954
101287.2064
101283.2316
101277.6234
101285.3932
101294.985
101303.5641
101307.0259
101320.8279
101329.3152
101327.6267
101323.9268
101319.3274
101317.5173
101311.7581
101302.4929
101291.7963
101287.7617
101293.0552
101282.3965
101274.9351
101282.419
101285.1393
101276.7424
101281.006
101295.404
101311.949
101310.9716
101316.2818
101323.6208
101331.0086
101332.7977
101325.545
101316.1471
101306.1454
101299.3674
101292.7401
101288.1555
101293.8961
101287.1716
101271.5588
101276.7404
101285.6917
101278.9612
101280.6508
101295.6697
101316.1474
101314.3507
101312.814
101317.0637
101331.6031
101340.737
101332.0207
101315.5266
101300.3272
101296.048
101294.6522
101289.8449
101293.791
101292.0064
101274.8041
101276.0703
101286.6855
101283.1665
101283.5184
101296.0481
101316.5871
101317.312
101313.0219
101313.4152
101329.7863
101344.3002
101336.8967
101316.3784
101297.6241
101294.6213
101295.8557
101291.6834
101294.661
101297.2765
101283.7917
101281.3665
101288.7133
101287.6923
101287.7785
101297.8013
101315.5252
101318.606
101315.0997
101313.9034
101327.6269
101342.3966
101336.8579
101317.2557
101298.5487
101295.7023
101297.6961
101295.3841
101296.6378
101298.571
101291.3517
101287.3632
101290.6626
101290.9363
101292.397
101301.1197
101313.797
101315.6349
101316.1234
101317.2307
101327.5074
101336.733
101330.9139
101315.4918
101301.0664
101298.2033
101300.4175
101301.0772
101297.3822
101295.8444
101292.5145
101290.1982
101291.7005
101292.5861
101297.1315
101305.8888
101310.4063
101308.9654
101313.591
101320.9134
101328.5093
101329.0879
101320.8089
101310.5752
101302.5902
101300.7038
101304.6285
101306.7568
101296.3317
101291.8459
101290.8514
101290.0865
101291.328
101293.42
101300.7883
101309.3857
101305.7673
101301.2049
101308.5665
101320.8669
101327.3521
101321.0537
101310.5654
101304.4055
101302.4621
101301.9715
101306.9101
101308.8164
101295.9896
101291.0187
101289.3882
101289.9085
101291.8426
101294.8799
101302.5676
101309.3123
101302.0784
101296.1193
101303.3014
101315.6385
101320.8612
101313.1961
101303.3204
101299.6664
101300.3527
101301.5987
101304.1072
101303.9587
101297.7979
101294.4628
101294.3945
101296.5696
101296.86
101299.6305
101301.9982
101303.4363
101299.5345
101296.3871
101299.9183
101306.8363
101309.0984
101304.4401
101299.8244
101298.6143
101299.4283
101300.8968
101308.0871
101306.4615
101314.1771
101311.3145
101309.7292
101310.3388
101313.2023
101305.0288
101311.1585
101318.0618
101312.5705
101302.9096
101294.2182
101292.5642
101290.0593
101285.4438
101281.911
101280.9235
101284.8391
101292.6456
101303.8145
101302.7995
101312.0925
101311.1108
101310.4648
101312.3362
101315.0531
101304.9888
101307.6175
101314.8368
101312.6418
101305.231
101295.7098
101292.0035
101288.9627
101286.4463
101284.1789
101282.7678
101285.8156
101292.888
101298.1238
101296.6802
101307.5372
101308.7721
101309.4533
101311.1649
101315.5666
101305.2511
101303.348
101309.9999
101312.6638
101309.2703
101298.9904
101292.1897
101289.1372
101289.578
101288.7996
101285.5943
101286.6268
101292.7711
101294.0301
101291.9242
101301.2848
101304.54
101306.6405
101305.8915
101312.0297
101304.6732
101301.0521
101306.0062
101312.257
101312.9603
101303.1774
101294.1
101291.4341
101295.0964
101295.1553
101289.2379
101287.3876
101292.3156
101294.3362
101291.2104
101295.5045
101300.0226
101302.4348
101297.791
101304.1464
101302.2208
101300.5924
101304.0934
101310.4881
101313.7778
101306.4946
101298.2655
101296.3108
101301.5971
101301.2432
101292.9001
101288.5808
101292.2067
101299.2913
101294.6801
101292.1941
101296.1467
101298.1921
101290.3089
101293.8154
101297.0945
101301.6213
101304.5861
101307.4936
101310.7544
101308.515
101304.6971
101303.6286
101307.2219
101305.1087
101296.523
101291.6463
101293.5478
101306.489
101301.048
101291.4561
101293.0139
101294.7845
101285.9557
101284.0627
101290.7645
101303.2505
101306.7343
101304.0337
101304.5892
101309.5557
101312.9566
101312.502
101311.3586
101306.3914
101300.2854
101296.9001
101296.6744
101310.4793
101304.5262
101291.2289
101289.5058
101291.6278
101284.9385
101279.0023
101285.5669
101303.7548
101308.4192
101301.3571
101299.2344
101311.1672
101322.0155
101321.6096
101314.563
101306.3978
101303.9204
101303.8407
101301.0847
101306.7473
101300.8964
101290.1892
101285.1197
101287.1438
101285.1118
101279.7478
101283.947
101300.0411
101306.9515
101301.5215
101298.2798
101313.1076
101329.1095
101329.4377
101318.1356
101307.0652
101307.066
101309.861
101304.8327
101297.5461
101292.2473
101288.4964
101281.4569
101281.9941
101284.4241
101285.0033
101285.6004
101292.7275
101301.7525
101304.7415
101302.5234
101315.2535
101331.5138
101334.106
101322.8877
101310.2612
101309.5176
101312.2375
101306.1902
101291.797
101287.9854
101289.3862
101280.5721
101277.3664
101282.0195
101289.6182
101288.2462
101286.2259
101295.9665
101309.4371
101310.5766
101317.5731
101328.9598
101334.3004
101327.8322
101316.008
101311.7337
101311.0876
101304.8468
101293.2354
101290.8247
101293.4885
101282.9234
101275.2863
101279.6258
101290.32
101290.143
101285.026
101292.1666
101311.9552
101318.4253
101320.7269
101323.5826
101330.1241
101331.0734
101322.8234
101314.8045
101308.6031
101302.1368
101299.1299
101298.5127
101296.2731
101286.3245
101276.8105
101279.6415
101289.057
101291.5926
101288.9677
101291.8727
101310.1145
101323.1899
101324.811
101319.3852
101322.9905
101330.1069
101328.3843
101319.3839
101308.1008
101300.3543
101302.6101
101302.14
101297.0593
101288.4757
101281.9933
101284.7961
101289.6241
101292.8541
101295.0787
101293.7798
101305.3595
101323.3663
101329.3881
101318.7662
101316.0121
101325.9628
101331.8043
101325.0102
101310.3734
101300.2973
101300.3103
101299.3022
101295.767
101290.0632
101288.2173
101292.5439
101293.484
101293.9505
101298.026
101296.9538
101302.7837
101319.6405
101330.4087
101320.6723
101313.743
101321.7871
101331.3875
101328.072
101312.9634
101301.2487
101295.292
101293.5618
101294.645
101291.6195
101290.6722
101296.1169
101297.6818
101294.0206
101296.8694
101300.3383
101304.3639
101314.3396
101324.975
101321.6118
101316.7705
101320.6218
101327.6151
101324.7375
101311.6988
101300.8821
101293.2913
101292.0249
101295.5698
101294.4856
101289.5162
101294.5221
101298.822
101292.8508
101294.6597
101304.644
101308.741
101309.3115
101314.5441
101319.5691
101321.9712
101322.0219
101321.6552
101316.0695
101304.9679
101298.8233
101295.8084
101295.8035
101299.389
101298.4368
101289.4791
101292.0391
101296.8995
101291.4548
101294.7235
101308.1794
101312.0261
101305.2383
101304.1485
101314.1163
101323.8814
101321.982
101315.2024
101306.3351
101297.8145
101296.5449
101300.4567
101301.0611
101302.3291
101302.1634
101292.1871
101291.0282
101294.4519
101292.2234
101297.1272
101308.7188
101311.0678
101302.7383
101297.9575
101307.2327
101318.6657
101317.5238
101309.1531
101300.3054
101294.1405
101295.9329
101302.103
101301.8383
101301.2993
101299.5248
101296.5833
101295.6742
101296.8468
101297.3296
101299.7618
101304.5362
101304.6814
101299.479
101297.2022
101302.0911
101307.7505
101307.6858
101303.4176
101298.4576
101295.9337
101297.9561
101298.1651
101302.4723
101322.0741
101316.6245
101306.7862
101316.0948
101322.5788
101310.2963
101309.1789
101313.2366
101315.9766
101312.2438
101299.9392
101290.4347
101285.0812
101283.211
101286.1162
101289.2183
101294.4223
101298.9192
101296.7822
101303.3324
101317.8714
101311.63
101306.2187
101317.5406
101324.9123
101311.5368
101306.6969
101309.1878
101313.1574
101312.7331
101302.2831
101291.315
101283.3635
101281.2539
101285.8018
101290.3096
101295.7644
101299.3258
101296.4703
101304.7626
101309.8094
101303.9956
101304.8625
101315.4431
101324.3984
101312.7494
101305.5766
101304.6077
101308.6568
101313.6068
101307.2502
101294.7293
101283.5484
101281.7768
101288.1867
101292.4642
101296.3142
101298.6753
101297.8812
101306.1518
101300.1672
101297.1277
101303.3507
101310.715
101318.1329
101311.4334
101306.1992
101302.1256
101305.051
101315.3617
101313.6352
101299.9548
101286.846
101286.2339
101293.2429
101295.4996
101296.0931
101297.0361
101300.2143
101304.7781
101293.6978
101293.4907
101301.4245
101304.648
101307.3663
101305.1752
101306.3197
101304.0093
101304.8176
101314.9882
101316.3508
101305.2997
101293.5446
101293.7769
101298.2812
101297.0215
101294.4496
101295.0289
101301.8095
101299.6398
101292.7513
101294.4444
101299.9493
101300.387
101296.0002
101294.8965
101304.8446
101309.6353
101308.9582
101312.6779
101314.4754
101309.8997
101303.5447
101302.6624
101301.4571
101296.6939
101293.2263
101294.306
101302.684
101295.0562
101298.3023
101299.6589
101298.6672
101298.8597
101287.9496
101284.4379
101302.1902
101316.8863
101315.2574
101309.2529
101309.0795
101313.9512
101315.6288
101311.6469
101302.5581
101295.894
101294.0946
101295.8307
101302.1261
101292.085
101305.269
101303.587
101295.3226
101296.3367
101286.8404
101280.2087
101299.3053
101322.1522
101321.4747
101305.3899
101303.2884
101317.94
101327.5319
101319.884
101303.7025
101296.2516
101297.9249
101299.3491
101297.9314
101289.7271
101304.5506
101301.0675
101287.9898
101288.7276
101290.9818
101285.5828
101294.9707
101319.1551
101323.1187
101305.8863
101302.1035
101321.0436
101335.2013
101326.2403
101306.7339
101298.4839
101302.823
101303.5672
101292.7078
101286.9906
101296.1222
101293.2831
101279.0437
101278.219
101297.3533
101297.8038
101292.1331
101307.887
101319.6746
101311.1756
101307.9044
101322.753
101336.4771
101329.4285
101311.3353
101302.4542
101306.3514
101306.1568
101293.3312
101290.0429
101289.58
101288.012
101276.5202
101272.6874
101298.6206
101307.5751
101292.6768
101296.2013
101313.0858
101319.493
101319.0442
101323.344
101331.8679
101329.2708
101316.2545
101307.6107
101308.6726
101305.9174
101299.6585
101299.7539
101291.1538
101287.7675
101283.1072
101275.9856
101294.3623
101310.3917
101297.7288
101290.9486
101305.9637
101326.523
101331.3356
101325.0295
101324.7384
101325.2607
101319.6275
101313.1507
101309.798
101304.3932
101308.5908
101312.6096
101297.8261
101288.3666
101292.6128
101287.1137
101288.3884
101306.7107
101306.8669
101294.005
101299.301
101327.971
101340.2327
101328.2375
101318.2231
101317.6053
101320.1441
101319.1018
101313.0224
101304.384
101311.4252
101316.377
101302.0444
101285.95
101297.021
101299.1658
101288.4749
101301.7938
101315.0595
101300.2662
101294.8322
101323.163
101342.996
101331.0629
101313.8483
101309.3622
101318.531
101324.9759
101318.527
101306.0699
101305.4025
101309.388
101299.7604
101281.6593
101294.1572
101305.8801
101295.5545
101299.975
101314.5632
101303.3319
101294.1612
101316.4242
101338.3404
101330.7811
101311.9544
101304.4927
101317.3915
101329.8355
101324.1093
101308.295
101295.3627
101296.187
101294.7713
101282.9501
101288.0799
101303.0456
101304.3171
101299.7127
101306.0337
101302.2766
101297.9605
101312.1918
101328.1905
101325.3542
101311.7674
101304.9385
101317.9175
101329.7614
101324.0385
101307.6278
101290.3661
101288.5355
101294.7218
101292.5974
101284.3789
101296.6179
101306.973
101297.5482
101295.4398
101300.8802
101306.2093
101311.8085
101315.1024
101315.5456
101312.2776
101310.0263
101318.7995
101323.7728
101315.3993
101303.5341
101289.8817
101288.7967
101302.2912
101305.5451
101288.3959
101294.3974
101304.5144
101293.6956
101290.0557
101302.2518
101314.6568
101312.8667
101303.9544
101305.3428
101311.6427
101314.1846
101317.4713
101314.5615
101304.3179
101298.5723
101294.228
101294.3316
101308.9705
101313.2863
101298.0361
101296.2475
101298.5799
101291.4511
101292.0318
101304.8929
101316.7058
101312.041
101297.8789
101298.4761
101308.3705
101312.9748
101313.0432
101306.807
101297.7243
101296.1653
101299.5017
101299.9931
101305.1988
101305.4295
101300.7246
101296.4003
101296.9398
101295.2528
101297.5705
101304.0777
101307.9222
101304.1014
101297.186
101297.2378
101302.9874
101306.2818
101305.3181
101301.0583
101296.9529
101297.3256
101290.8688
101300.1171
101327.697
101321.618
101310.9053
101323.2885
101330.2695
101326.4801
101314.6487
101303.5552
101312.5807
101321.7999
101308.6445
101285.1955
101273.0319
101278.7674
101289.1949
101295.933
101301.8356
101305.1891
101295.1401
101310.9057
101321.98
101311.9892
101306.2045
101319.1324
101330.2168
101326.7179
101313.9062
101302.6222
101309.8854
101318.9587
101309.7652
101290.8811
101279.4733
101279.6301
101285.5084
101291.3428
101299.1479
101304.0936
101303.5257
101326.6217
101313.4336
101300.5977
101302.3938
101314.501
101325.6793
101324.2739
101315.8687
101304.2937
101305.4448
101313.8223
101312.2856
101300.1672
101287.1172
101280.2363
101282.815
101289.6997
101299.0935
101303.8826
101313.4027
101336.3731
101304.4173
101292.2143
101300.2379
101313.0873
101317.2287
101317.8507
101318.9636
101309.0259
101301.3896
101308.3079
101315.9219
101309.943
101293.8593
101280.1008
101282.1213
101292.1107
101302.4588
101305.0585
101314.7379
101329.7805
101298.9983
101289.7829
101298.8696
101313.3595
101308.3512
101306.4837
101316.9432
101314.5935
101303.8054
101306.235
101316.8079
101315.6604
101299.5694
101282.5638
101284.4815
101296.0944
101305.4596
101305.378
101305.0263
101306.7032
101299.6925
101293.7458
101298.163
101316.1874
101303.6472
101293.4311
101308.0081
101318.5154
101314.5917
101310.5929
101314.72
101315.4528
101305.1527
101290.5687
101290.068
101298.4676
101304.7657
101303.6447
101289.6493
101277.8617
101308.0335
101304.9331
101298.7442
101319.1368
101304.9855
101283.1705
101294.2469
101320.5167
101330.3597
101318.8085
101308.5775
101310.7366
101312.1693
101304.4365
101298.3635
101297.4435
101299.3733
101300.2427
101278.0015
101261.1581
101318.2442
101316.5104
101296.6819
101312.8876
101310.1027
101283.8333
101283.4068
101320.6118
101345.6076
101326.0688
101300.8165
101304.4203
101320.3642
101321.0659
101308.0778
101294.4869
101292.2066
101295.7409
101278.0014
101264.8841
101315.4609
101317.5514
101289.5908
101294.3282
101312.3551
101295.0031
101282.8529
101315.8076
101345.9634
101329.4551
101298.5986
101299.7601
101324.6837
101334.4467
101318.3084
101293.6012
101286.1226
101292.7817
101288.7729
101283.294
101300.0851
101306.7764
101281.2055
101273.4262
101308.859
101312.2593
101293.4093
101305.7931
101331.9508
101329.9225
101306.2269
101300.0879
101322.6969
101338.6564
101325.8978
101297.4307
101285.0513
101292.522
101303.1294
101303.2701
101286.0009
101298.5841
101286.3483
101267.0933
101299.4562
101323.5809
101308.5399
101297.7787
101310.3234
101329.1562
101321.783
101307.8957
101316.6072
101332.8414
101328.4747
101305.2156
101290.8294
101295.2279
101313.2004
101317.6248
101285.1678
101296.0869
101304.4838
101280.2646
101289.0513
101321.7752
101321.9048
101297.5184
101292.5342
101326.0614
101339.0969
101322.1417
101313.4397
101319.7996
101323.3118
101312.8393
101302.8573
101300.9779
101317.3344
101326.4583
101299.4231
101295.2479
101319.0339
101302.5975
101281.5623
101308.7026
101330.5501
101308.2856
101287.4019
101317.6919
101348.197
101338.7707
101317.2637
101305.0644
101310.4317
101316.8215
101316.5627
101308.2074
101314.0219
101326.2354
101311.3406
101288.5464
101314.0736
101315.093
101283.5461
101296.1158
101329.3626
101320.8801
101292.6485
101305.8964
101342.4549
101350.6634
101325.13
101294.8787
101295.3844
101315.5461
101327.2236
101314.6791
101307.83
101319.3518
101308.3856
101275.7188
101293.884
101311.2173
101294.2828
101296.3558
101321.4788
101322.5609
101300.718
101298.1083
101325.4716
101347.8959
101330.3491
101292.9036
101285.9592
101311.3268
101331.2193
101318.042
101304.3998
101307.8842
101294.6769
101273.5316
101278.1549
101299.5211
101307.5229
101306.4856
101311.8577
101311.6794
101305.1239
101300.6188
101311.3027
101330.356
101325.9927
101298.0824
101288.8756
101309.5548
101328.2384
101316.5951
101304.138
101300.0618
101289.3417
101287.5977
101279.66
101291.435
101310.3346
101314.372
101304.2348
101296.0242
101306.6754
101313.2848
101305.625
101305.7878
101311.624
101306.4356
101302.8246
101313.4597
101322.0142
101311.7483
101298.2073
101293.4147
101298.3318
101307.7279
101296.6451
101296.6938
101307.7878
101312.9282
101298.8503
101285.6656
101308.8811
101326.5489
101305.8633
101287.2498
101296.6789
101311.8454
101318.2178
101318.1242
101315.7671
101306.6242
101291.7307
101291.5414
101311.1855
101319.2699
101314.4798
101308.4068
101301.3167
101305.9029
101297.0791
101285.3327
101309.3525
101330.5553
101309.4009
101283.2746
101289.4087
101309.2787
101320.9458
101318.9415
101311.3738
101303.5224
101295.6806
101298.2995
101308.4208
101311.6757
101309.7246
101301.3144
101297.3996
101299.8357
101299.4859
101296.7673
101304.9794
101314.6698
101305.7184
101290.2711
101291.3488
101304.0001
101311.2826
101309.3606
101304.7499
101300.1852
101287.201
101304.1956
101323.5107
101324.9843
101325.8629
101329.7994
101326.9135
101341.0627
101328.0742
101297.7761
101302.6737
101320.4181
101311.6798
101283.3165
101266.3528
101272.541
101287.692
101299.7871
101305.4435
101306.6416
101296.8361
101318.5955
101316.2597
101315.7563
101318.1126
101317.3277
101324.0781
101338.2301
101327.0274
101304.2276
101305.124
101316.3551
101312.4908
101295.3975
101281.5413
101278.1595
101281.4547
101288.8041
101296.9801
101303.2273
101311.7061
101340.014
101311.5955
101308.0703
101311.3
101308.0341
101316.8339
101330.147
101327.8534
101313.413
101306.3495
101308.1889
101310.8063
101307.6141
101296.2574
101281.2783
101274.7678
101281.4108
101294.416
101303.1298
101326.3093
101352.8267
101311.9261
101303.9374
101305.5109
101308.3058
101309.9381
101317.7675
101327.2099
101322.6407
101305.6404
101296.5028
101306.9012
101314.7746
101303.7366
101278.8336
101270.6127
101282.6471
101300.0183
101307.7471
101324.5348
101342.1093
101314.4755
101302.6415
101299.7959
101314.9893
101307.8858
101307.1945
101322.1337
101324.5271
101309.4012
101298.1232
101307.7314
101314.7937
101302.9992
101277.8765
101274.0135
101289.9848
101307.4525
101311.7596
101304.9272
101308.7087
101315.95
101302.9476
101294.2892
101324.048
101315.573
101303.3782
101309.7045
101316.2753
101319.537
101317.2937
101313.9121
101309.1602
101298.6745
101283.2246
101284.3246
101298.4223
101310.2355
101311.0683
101274.8123
101265.3502
101317.3664
101306.2377
101292.0019
101329.1012
101330.6862
101304.9265
101291.2221
101304.5647
101332.3183
101340.9905
101318.2593
101299.8747
101295.6594
101295.6084
101298.9491
101302.0095
101303.5225
101304.576
101256.5532
101241.7623
101319.3872
101313.4951
101292.079
101320.8338
101339.3339
101309.6641
101276.6138
101295.3615
101346.5685
101358.1444
101317.6058
101290.6756
101296.1343
101311.4012
101312.8107
101299.8356
101290.5244
101294.101
101268.1159
101258.7154
101313.1504
101316.7627
101291.9627
101301.6797
101330.4359
101315.2706
101283.5003
101296.2649
101341.7851
101356.9081
101318.5925
101289.4231
101298.7268
101321.7451
101321.0047
101296.1521
101279.7429
101285.8516
101300.6642
101301.9825
101299.6199
101311.1167
101294.5388
101284.4027
101307.9354
101318.7973
101309.5202
101307.1639
101324.0124
101341.0824
101322.8415
101298.9155
101303.6677
101323.2206
101321.84
101295.1731
101276.7697
101283.5792
101325.2887
101327.8756
101282.8564
101306.6336
101310.2955
101285.2989
101285.9335
101313.418
101335.2855
101321.3387
101301.7086
101319.4453
101326.9618
101313.9694
101309.2443
101317.1468
101317.9151
101299.6924
101283.9497
101288.409
101324.6123
101326.6685
101278.3073
101304.3043
101331.3619
101302.5042
101275.1058
101302.4775
101346.0554
101333.2473
101293.1235
101302.7694
101326.235
101327.6445
101317.6179
101309.3729
101311.7533
101306.9077
101298.2486
101297.6446
101306.2712
101309.3435
101294.4686
101304.7392
101340.4439
101322.4175
101279.41
101291.2766
101336.2993
101337.4464
101303.2619
101295.6406
101317.7268
101337.1847
101328.3872
101304.8852
101303.8434
101310.2706
101311.9206
101306.8791
101291.3083
101300.8673
101311.6567
101303.6802
101324.085
101319.5022
101293.1399
101291.8616
101316.1745
101333.573
101320.6062
101297.1378
101307.1254
101338.7905
101336.0371
101303.2787
101292.2163
101306.4461
101318.7727
101312.6255
101296.0052
101309.1213
101314.3794
101294.8888
101290.2726
101296.4088
101303.8308
101304.9001
101306.3876
101324.2235
101325.5768
101301.004
101299.1456
101331.2214
101335.4529
101301.9533
101282.3327
101297.2
101318.7644
101315.119
101314.9101
101324.9814
101305.224
101288.713
101272.8653
101281.3212
101307.1684
101321.9374
101314.8495
101312.7793
101313.7583
101304.4516
101299.4507
101316.7291
101323.904
101301.3438
101280.7833
101291.3681
101315.7615
101314.6693
101329.4406
101330.238
101297.3934
101292.495
101285.9642
101286.7833
101301.0708
101328.5648
101325.2926
101302.756
101298.3246
101307.8356
101305.8821
101301.2253
101305.4767
101302.7527
101289.669
101294.8966
101313.3931
101312.424
101317.9895
101312.9651
101297.6795
101300.321
101310.6777
101307.4652
101303.5634
101326.3676
101320.0078
101291.1713
101292.7296
101314.8863
101311.7742
101291.0963
101290.5782
101305.1173
101303.9074
101303.7833
101312.9965
101310.0764
101290.1133
101290.6998
101305.538
101304.2321
101323.5369
101328.5213
101310.4479
101315.5507
101304.4175
101287.0801
101300.8999
101319.9413
101313.2689
101289.3126
101285.3639
101304.096
101312.2078
101311.0199
101313.1422
101307.3682
101288.1091
101294.8152
101306.6628
101307.3849
101313.8151
101310.4383
101303.3576
101301.6231
101299.6772
101298.1525
101303.7902
101310.38
101306.9284
101293.8473
101290.9562
101302.2484
101308.6956
101306.9984
101305.8882
101302.4692
101284.6997
101309.181
101314.1847
101331.7291
101340.9716
101335.2152
101321.7103
101321.2994
101321.4591
101319.1468
101308.1441
101293.5999
101294.0258
101303.9637
101287.5231
101252.55
101261.0055
101285.7975
101301.4922
101304.5647
101296.5003
101317.1424
101308.5218
101326.825
101336.9983
101318.0571
101313.0054
101333.9259
101336.8717
101317.4309
101305.8023
101302.9555
101303.266
101295.0323
101279.2276
101272.0023
101277.0309
101289.7737
101295.7053
101297.8288
101312.0708
101327.508
101310.4567
101327.801
101332.163
101303.5852
101303.2696
101340.0252
101347.6376
101317.0357
101301.5052
101306.9202
101308.6297
101289.7933
101276.3419
101287.4314
101287.8501
101289.097
101289.9257
101293.7714
101323.6329
101333.3189
101324.2498
101332.4686
101322.9668
101301.6726
101302.3971
101332.8902
101341.2276
101314.0455
101300.4737
101306.8164
101307.497
101289.6674
101283.7433
101293.5194
101287.2678
101282.5809
101287.5003
101295.4132
101320.7332
101326.9845
101336.2827
101331.5669
101311.5359
101305.2431
101311.0325
101329.1421
101329.4464
101308.5988
101304.3584
101310.5169
101308.0651
101292.2233
101289.7389
101293.6804
101284.7132
101279.8441
101289.2195
101299.6513
101301.0037
101308.3872
101333.4764
101320.8207
101299.1401
101309.9546
101326.5961
101336.4939
101321.2241
101302.0692
101310.5148
101322.9304
101317.3438
101296.8951
101289.1771
101290.8567
101286.2328
101283.8886
101293.643
101303.7642
101270.7051
101280.1629
101319.3855
101301.2908
101290.4625
101313.0978
101344.5082
101349.3599
101314.3144
101288.5433
101317.451
101345.9976
101334.931
101300.5143
101281.989
101288.6615
101293.2407
101291.5898
101295.5375
101303.6734
101257.6056
101266.081
101301.0307
101287.7401
101289.8639
101312.1682
101347.6888
101355.3923
101312.3071
101268.0958
101303.0218
101355.9129
101351.5423
101303.3807
101274.0506
101289.4187
101302.4686
101298.0608
101293.6416
101298.4949
101280.6703
101292.4091
101291.9956
101290.3053
101298.6335
101307.8044
101329.67
101344.3637
101320.7251
101278.3417
101291.1852
101344.5691
101358.5115
101310.0141
101272.602
101288.2443
101305.9495
101301.1016
101292.6862
101294.1211
101326.242
101337.7623
101295.8082
101302.6834
101313.5172
101308.3147
101299.5591
101319.2484
101339.2916
101314.5107
101288.5318
101325.9565
101354.7765
101321.3954
101282.2108
101284.4646
101301.0184
101300.919
101295.107
101294.7754
101345.6625
101346.8764
101294.5906
101312.973
101331.2663
101319.1312
101278.7574
101292.0979
101350.5118
101344.6604
101296.3549
101306.0284
101338.2177
101332.6486
101300.4455
101280.9554
101291.1547
101300.5244
101301.6856
101300.2853
101321.3447
101311.658
101287.3224
101315.9815
101341.3668
101332.6299
101280.6844
101278.1547
101343.3532
101357.7072
101309.8753
101285.8093
101308.1179
101334.5776
101321.8201
101286.7156
101284.8602
101298.2783
101306.3893
101305.4979
101273.8544
101260.4651
101288.8507
101319.7649
101335.4804
101328.9623
101299.8231
101283.7306
101316.7787
101352.3879
101332.1205
101278.215
101270.4541
101322.9295
101339.7832
101303.2897
101286.4062
101294.1963
101303.9906
101305.0818
101252.4661
101245.3058
101298.0402
101329.2319
101316.0766
101300.798
101314.0474
101303.1324
101289.3357
101334.2608
101354.999
101288.0492
101246.5891
101302.1622
101346.5529
101324.7132
101294.854
101287.1755
101293.305
101298.2489
101275.7799
101278.5159
101310.9503
101336.4269
101296.4689
101266.9382
101309.9182
101321.1549
101287.3173
101317.292
101359.2397
101309.9591
101254.2961
101282.8092
101335.029
101339.5739
101305.6699
101279.8406
101279.957
101291.5574
101318.1991
101335.2947
101326.0459
101331.0305
101296.927
101269.7477
101294.381
101326.6362
101313.9152
101313.7692
101333.7136
101324.3006
101284.9121
101278.5278
101311.0874
101335.8582
101312.4637
101280.9871
101276.1722
101291.0133
101342.0664
101358.0209
101328.3743
101311.307
101313.7168
101303.3446
101286.2462
101320.5833
101339.8904
101312.8154
101299.5825
101323.8145
101319.9164
101286.6416
101280.8499
101313.1792
101312.3823
101290.2281
101286.1675
101297.842
101326.553
101331.4646
101312.9528
101286.4966
101317.421
101329.8585
101301.1106
101317.0663
101333.6273
101303.5138
101271.1382
101309.6363
101342.18
101297.0781
101257.2196
101284.5412
101308.391
101302.6308
101303.7164
101306.6522
101286.4357
101290.7505
101300.2818
101267.7014
101303.3429
101338.1173
101324.4862
101306.224
101303.6739
101290.9284
101267.3744
101293.3118
101337.4934
101307.986
101260.0627
101272.7237
101301.9
101308.5163
101313.1816
101310.7917
101280.464
101291.782
101301.5971
101291.1613
101302.5048
101315.4159
101310.452
101299.5646
101297.064
101293.5456
101286.5215
101295.8292
101316.2386
101307.3558
101283.7324
101282.4839
101296.6083
101305.6012
101309.81
101305.9793
101289.6922
101320.9658
101312.6311
101335.3164
101326.3978
101318.4406
101327.5433
101317.9217
101308.6135
101314.7043
101298.6645
101277.6369
101282.7191
101295.0685
101285.5971
101248.0203
101239.9261
101266.2135
101294.1645
101304.651
101297.7444
101314.6533
101308.1516
101334.3249
101343.0703
101318.1627
101308.0794
101325.5001
101329.0814
101319.3809
101305.0658
101287.4171
101285.5295
101284.9162
101271.96
101265.2691
101272.9046
101283.7791
101291.7031
101297.2986
101308.1146
101303.3491
101310.9542
101338.4329
101350.8504
101315.9578
101291.5482
101324.4337
101340.4778
101323.7743
101309.2813