/*--------------------------------*- C++ -*----------------------------------*\
| =========                 |                                                 |
| \\      /  F ield         | OpenFOAM: The Open Source CFD Toolbox           |
|  \\    /   O peration     | Version:  5.x                                   |
|   \\  /    A nd           | Web:      www.OpenFOAM.org                      |
|    \\/     M anipulation  |                                                 |
\*---------------------------------------------------------------------------*/
FoamFile
{
    version     2.0;
    format      ascii;
    class       surfaceScalarField;
    location    "5.2";
    object      phi;
}
// * * * * * * * * * * * * * * * * * * * * * * * * * * * * * * * * * * * * * //

dimensions      [1 0 -1 0 0 0 0];

internalField   nonuniform List<scalar> 
91025
(
2.877739226
-0.09088156843
-0.1209571861
2.602624119
-0.1309832954
0.1909914475
1.772674733
-0.3784538854
-0.1289017172
0.9361076276
-0.3206348983
0.09760269103
0.5724206417
-0.1145227037
-0.06445596421
-0.2412586282
-0.1241587543
-0.02799306095
-1.050830461
-0.0629091188
-0.2483750293
-1.441683744
-0.001049071392
-0.05370530356
-1.568276784
-0.1075902768
-0.2802043081
-1.717565869
-0.1806593701
-0.4735965756
-1.897431293
0.05670839082
-0.55883558
-1.793714427
0.2611097478
-0.4660801389
-1.467605582
0.4573085346
-0.4472052777
-0.9086092152
0.370082759
-0.5128837219
-0.3783035717
0.3924247139
-0.5427073976
0.1076056021
0.3637071626
-0.5420759695
0.403079307
0.3218274313
-0.4475991489
0.6575431688
0.1146862896
-0.2987356445
0.8435631649
-0.01298065664
-0.1149910326
-0.07182254868
-0.00364029257
2.808110324
-0.1172046886
-0.06744823098
2.49860584
-0.2561193524
0.2399380124
1.799082326
-0.6643921813
-0.1183586931
1.011567582
-0.5950307919
0.06811173685
0.6097314362
-0.2869777783
-0.1073711197
-0.2191737894
-0.3773590353
-0.0783085225
-1.055554543
-0.2938673054
-0.2858652703
-1.486375229
-0.1104962804
-0.08257366328
-1.581656724
-0.1436137615
-0.2533029996
-1.641704518
-0.2328086164
-0.4333179236
-1.77180194
0.1510529989
-0.5635972937
-1.72147574
0.4645415703
-0.5087851038
-1.464987247
0.8491703928
-0.4674156492
-0.9294079118
0.7235310677
-0.4851942821
-0.3844083992
0.7787460746
-0.5131526543
0.06942218605
0.7107799273
-0.5475783966
0.3269063696
0.6122518156
-0.4680375886
0.5868686563
0.2406123616
-0.3007887031
0.8262323245
0.008415491846
-0.1006815785
-0.1174873686
0.006060542198
2.673103228
-0.0644792856
-0.0003534770913
2.339666077
-0.3568146112
0.3151147249
1.829928859
-0.8248902017
-0.08464218233
1.104409652
-0.7724106046
0.04996154926
0.6400620738
-0.4922605468
-0.1494851609
-0.1791019944
-0.6814408992
-0.1046993778
-1.008804235
-0.6518396107
-0.3239479006
-1.489058218
-0.3557705169
-0.1291069422
-1.571333041
-0.1195938587
-0.2323430365
-1.523683138
-0.1295843566
-0.3719730014
-1.56635275
0.278539975
-0.5799116767
-1.593704156
0.5568481974
-0.5681667054
-1.445304203
1.089563305
-0.5073467938
-0.9523826386
1.004402788
-0.4489335182
-0.4114850978
1.113770764
-0.4838984845
-0.01258789838
0.9622349991
-0.5598586146
0.1848831394
0.7958875614
-0.4880647009
0.4607647378
0.3598892268
-0.2816601918
0.7910000322
0.09434532759
-0.05725324929
-0.1092111502
0.03174024613
2.507837662
0.03278591452
0.05360445801
2.187792315
-0.4361981723
0.3574741376
1.83391551
-0.8218208833
-0.03672512484
1.174575673
-0.8613872997
0.04602555842
0.6317599675
-0.6905819439
-0.1775850147
-0.1563112351
-0.9367709828
-0.08385647194
-0.9033074759
-0.9762612786
-0.3192135831
-1.38252023
-0.6525038342
-0.1810488405
-1.49499288
-0.08263671672
-0.2349088029
-1.415431166
0.05166602535
-0.3357997056
-1.366901253
0.3984790962
-0.5967006097
-1.432594463
0.5182584919
-0.6303819822
-1.390935407
1.134389625
-0.5533923797
-0.9604381895
1.180860548
-0.4427203703
-0.4561847943
1.365838646
-0.4693024345
-0.123904454
1.066319263
-0.579907562
-0.0009382773532
0.8314360192
-0.4923586078
0.3042682589
0.4315597787
-0.2429094043
0.7280111663
0.2568080789
-0.001034771379
-0.02825416744
0.06740033701
2.330948533
0.1169604833
0.02875533713
2.030701926
-0.4872561272
0.3120392345
1.788053346
-0.6899277679
0.0004008256472
1.181162869
-0.9161609128
0.04975344301
0.5823025324
-0.8467393312
-0.188287028
-0.1536070453
-1.067231017
-0.02458446099
-0.7561365085
-1.122780939
-0.261858856
-1.153287429
-0.8632568379
-0.2048323691
-1.329750554
-0.05203939975
-0.2793153244
-1.310905959
0.2053119016
-0.3347943312
-1.218336086
0.4898038527
-0.593182689
-1.264111262
0.3600341075
-0.6226551105
-1.273333058
1.046576348
-0.5859005915
-0.9407825643
1.248525576
-0.4560083451
-0.5375474716
1.525444776
-0.4777489962
-0.2699138433
1.037746586
-0.5693001883
-0.1509124203
0.7652655617
-0.4565795229
0.173647381
0.4519122549
-0.1910355022
0.6421854991
0.4736074554
0.04743496998
0.1057755747
0.0880985663
2.186970798
0.1411951552
-0.06978367871
1.913576978
-0.5007290578
0.1799260543
1.698885196
-0.5406050683
0.01931327579
1.130057393
-0.9912742362
0.05272654189
0.5228106889
-0.9684362355
-0.1898254613
-0.1680050373
-1.11498943
0.0281945776
-0.6078051205
-1.013846876
-0.1570247694
-0.8678484452
-0.8995775741
-0.2019196088
-1.093417502
-0.05203989259
-0.3636837495
-1.228622787
0.2434472464
-0.3947838274
-1.145239569
0.5031547179
-0.551080838
-1.089869542
0.1847424567
-0.5610661425
-1.093158042
0.9246256358
-0.589341064
-0.8947404777
1.224240267
-0.5100972334
-0.6641795085
1.591974412
-0.4983086742
-0.4418956165
0.9447733429
-0.5192598011
-0.2617491626
0.6831401535
-0.3763606113
0.09565301442
0.452692858
-0.1490923216
0.5242855319
0.6631180285
0.04128294315
0.2358739435
0.07425299818
2.060480989
0.07583344439
-0.2087610146
1.845021031
-0.5715605632
0.005981878522
1.535013387
-0.5061353117
0.01089180243
1.035588616
-1.163046937
0.06372399584
0.4906212075
-1.089245653
-0.1856155827
-0.1475895718
-1.198754872
0.04567838858
-0.4712914525
-0.7607421263
-0.06295236371
-0.5987734409
-0.7772787545
-0.1801278307
-0.8416152791
-0.1183193367
-0.460094922
-1.160715292
0.05992207286
-0.4653713281
-1.146010011
0.4504106324
-0.4801848119
-0.9317771239
0.09704667687
-0.4223513469
-0.858805524
0.8480612015
-0.5785928551
-0.8138578966
1.088593911
-0.577757166
-0.8201575482
1.528492427
-0.5279660072
-0.6295496333
0.8236460831
-0.4184115785
-0.3252744221
0.6498001036
-0.2583312435
0.07534594412
0.4486056863
-0.126013485
0.3896310064
0.7492965568
-0.02008325724
0.2920945623
0.02088978391
1.945862591
-0.06156487653
-0.2915235207
1.721827686
-0.6880444245
-0.1080123185
1.380740378
-0.6066179473
-0.0002364999854
0.9517200195
-1.383363896
0.09398261629
0.5281179607
-1.198277436
-0.1702820177
-0.04584870231
-1.350808554
0.004286627069
-0.3429457051
-0.5326842205
-0.03038345475
-0.4274482396
-0.5955966928
-0.1624657058
-0.6646788123
-0.2426347911
-0.5266617934
-1.08975183
-0.3213164678
-0.5316119318
-1.116371342
0.341616426
-0.417520662
-0.7783923318
0.1565485251
-0.3153643709
-0.617319354
0.8153981001
-0.5719014656
-0.7519314989
0.8437219861
-0.6581416431
-0.9747508344
1.282796722
-0.5514945173
-0.8056425625
0.697690191
-0.3139069824
-0.3652326567
0.6879114014
-0.1409405664
0.0762992973
0.4387540757
-0.1231561306
0.2460454628
0.6769504695
-0.1246766342
0.2274718873
-0.05411788484
1.759557474
-0.1365348901
-0.2522940517
1.546751877
-0.7889552585
-0.09865455808
1.234572832
-0.6906767709
-0.02821536517
0.8805980883
-1.483147651
0.1280235278
0.6152823885
-1.182773409
-0.1392860644
0.1510403929
-1.462789428
-0.07149631593
-0.2046874981
-0.4717473282
-0.07371490381
-0.3589407602
-0.5331193916
-0.1626289551
-0.5524289468
-0.3876138771
-0.4975938348
-0.9331771428
-0.7633730928
-0.5154835312
-0.9910150462
0.1678751688
-0.3753394516
-0.6335773504
0.2431449944
-0.2541780903
-0.4647964683
0.7910946252
-0.5479523936
-0.7131418947
0.4563376401
-0.686959344
-1.075703729
0.8468670114
-0.5549679017
-0.9170342602
0.5205770898
-0.2302606894
-0.3987627381
0.7542019166
-0.05791291497
0.06302751131
0.4111227077
-0.1242794736
0.09764683561
0.5003466988
-0.2121966121
0.04950812517
-0.119438325
1.556380957
-0.04797299994
-0.1203905769
1.380856759
-0.787639878
0.01284315116
1.156565552
-0.5682650842
-0.06004568174
0.8424346986
-1.364479535
0.1420540433
0.6881261159
-0.9837480976
-0.09191353728
0.382091021
-1.437424208
-0.1352956738
-0.07348757001
-0.5860107691
-0.174484829
-0.4065559081
-0.6885478232
-0.1871456836
-0.5354549881
-0.4886704552
-0.3863137421
-0.7408507093
-1.064704619
-0.4433255882
-0.7632434988
-0.03349791145
-0.4054985031
-0.5268648687
0.2382152461
-0.2851989036
-0.4396769338
0.7141239921
-0.5163547166
-0.702766685
0.0113085581
-0.6544100922
-1.080432499
0.3338587408
-0.5273468397
-0.9451609917
0.2728124697
-0.1986707463
-0.4492101793
0.7722008352
-0.03085297165
-0.01949881213
0.3782698037
-0.1197557921
-0.02611740515
0.3171951123
-0.2369228317
-0.1433626933
-0.1341740897
1.342580544
0.1471361971
-0.009583878622
1.16238933
-0.7025742657
0.09018416712
1.034645005
-0.3380659592
-0.1053527147
0.7891955426
-1.176781971
0.1257118427
0.7079582846
-0.7242939649
-0.0231128559
0.5320591169
-1.306835896
-0.1440888701
0.03559189311
-0.7484596561
-0.2745529804
-0.4476924163
-0.9913116771
-0.2201989361
-0.5368020058
-0.5078662854
-0.2349141848
-0.5177940956
-1.15041883
-0.3254528228
-0.4637002914
-0.2909517547
-0.4369180798
-0.4616642292
0.0190281933
-0.3449778884
-0.5380392673
0.5082396297
-0.4633550545
-0.7222285078
-0.374811527
-0.532524094
-0.9846255018
-0.1131655241
-0.4490647519
-0.8594284209
-0.009697347764
-0.2027852351
-0.4960278326
0.7017310611
-0.05332119837
-0.1396845184
0.3441624048
-0.1062591051
-0.1032996495
0.224008276
-0.1823847011
-0.2419524183
-0.09871995311
1.241533208
0.2715528649
0.01989166396
1.053782779
-0.6938525348
0.1054914052
0.9368298504
-0.2044203742
-0.1409856127
0.7738724049
-1.148460942
0.0860404015
0.6808215465
-0.6032141173
0.04594118587
0.5349050125
-1.231484663
-0.1012808369
0.1112337088
-0.8311947873
-0.3121934415
-0.4363607521
-1.306439135
-0.2495400024
-0.5615929104
-0.497931624
-0.1432788157
-0.3553863004
-1.099141032
-0.2074427923
-0.2205940854
-0.5085566531
-0.4320157226
-0.4191614537
-0.3950673947
-0.417033968
-0.6979949599
0.1754636581
-0.4186387628
-0.7932205416
-0.6241084692
-0.3622884843
-0.8261392669
-0.375345413
-0.3274186229
-0.692556559
-0.2910099435
-0.225149273
-0.5037202419
0.5581613477
-0.1237742151
-0.2873418014
0.3016363225
-0.09881759422
-0.1697180467
0.2597005863
-0.08329158364
-0.2342180158
-0.02440022691
1.136334223
0.2144360241
-0.004683770116
0.9193317299
-0.8931798968
0.06350855085
0.7831307957
-0.2636229491
-0.1239930735
0.7113172159
-1.306601766
0.02536297386
0.6232410304
-0.6970950223
0.06790107073
0.4621157097
-1.309039841
-0.0650441927
0.1584237046
-0.8033170379
-0.3077778992
-0.3367179815
-1.528077731
-0.2745232324
-0.5307998711
-0.5836587881
-0.1145110889
-0.2643873398
-1.060772854
-0.1196651151
-0.04393948436
-0.6302870182
-0.3458236305
-0.3297877767
-0.8823749576
-0.4461806596
-0.7999639656
-0.2774135731
-0.3980320155
-0.8474170607
-0.7778540012
-0.1929597489
-0.6605077104
-0.397838458
-0.1714995915
-0.4820906488
-0.4182518195
-0.2224571248
-0.4496855093
0.3901195124
-0.2175116607
-0.3843148314
0.1840146856
-0.1278946876
-0.2518709196
0.2945310285
0.00388990273
-0.1950797023
0.04019741645
1.021716867
0.09244844276
-0.01283710238
0.8369635596
-1.169884088
0.06740484343
0.6579688561
-0.3743720264
-0.08577176563
0.6775268051
-1.470023088
-0.01356916468
0.6306493826
-0.9060476555
0.02828668703
0.4192216471
-1.567002444
-0.08125297443
0.1601334326
-0.7724201027
-0.2872511296
-0.2378569486
-1.705304255
-0.2693155449
-0.5004107169
-0.8427129994
-0.1320439072
-0.2767877948
-1.122419652
-0.07001784076
0.01046281124
-0.6254438972
-0.2300021655
-0.2707430089
-1.254562993
-0.4276484767
-0.8030969696
-0.75286372
-0.3817238314
-0.842370925
-0.9333309536
-0.09083022684
-0.5216494797
-0.2710519263
-0.06317337015
-0.2979114992
-0.3582146456
-0.214252763
-0.3741595745
0.2212519591
-0.3146748521
-0.4476900773
-0.06386875105
-0.1789422672
-0.335078178
0.1705707589
0.03636655114
-0.2073668136
0.08639375426
0.7827310109
0.04668387194
0.03974228721
0.73918824
-1.295365324
0.1175806744
0.5414703259
-0.3321057688
-0.06124735033
0.5956938006
-1.410859987
-0.07008038368
0.6707863151
-1.023125011
-0.05846244847
0.4167947985
-1.854195652
-0.1588202834
0.122656252
-0.8853900395
-0.2894773735
-0.1742002052
-1.917707843
-0.2402534855
-0.3903991853
-1.175796749
-0.1328571502
-0.26032145
-1.262009816
-0.07255804471
-0.01368050585
-0.5623745201
-0.1700602218
-0.2304606668
-1.422216804
-0.3733147817
-0.680238894
-1.146186767
-0.3470195342
-0.7003980812
-1.137078443
-0.05384864223
-0.3805512064
-0.1499953713
-0.02136476802
-0.1895713206
-0.2724219809
-0.216547068
-0.324267818
0.05689496984
-0.3690571713
-0.4563586951
-0.401396476
-0.2221827511
-0.361339323
-0.0957141824
0.04847424646
-0.2907550966
0.1039452817
0.5881929109
0.1763085131
0.1157004045
0.7401341611
-1.147858138
0.1959200256
0.4788223419
-0.130254253
-0.07036577563
0.459766
-1.208981055
-0.08482246511
0.6631012828
-0.9157931923
-0.06997791146
0.4428777789
-2.016810753
-0.1637098907
0.0634725416
-1.124773945
-0.254511826
-0.1421438778
-2.154896224
-0.1487495924
-0.2358956583
-1.392265011
-0.07492844341
-0.2105401019
-1.434596711
-0.09681343748
-0.120160615
-0.5292618346
-0.1674056357
-0.2852834401
-1.439667476
-0.2821808381
-0.5294924019
-1.348447641
-0.2606283804
-0.4645580227
-1.306012564
-0.04790067037
-0.252791274
-0.166477442
-0.05687248104
-0.1981752585
-0.2967178158
-0.2306033534
-0.372512868
-0.104749079
-0.3608795809
-0.4717672076
-0.6619085187
-0.1907739081
-0.3022292681
-0.3222782995
0.07217663442
-0.3598461487
0.1200969637
0.394343848
0.3828165871
0.1587356994
0.6840371246
-0.8979744278
0.1917891151
0.3482632163
0.01577075161
-0.09895919743
0.1996482436
-1.12116059
-0.1078422914
0.5260005225
-0.6301553341
-0.009342491737
0.4275029161
-1.954650154
-0.1145205262
0.009764132071
-1.29174072
-0.2099379085
-0.08672435781
-2.207103332
-0.05191993132
-0.0001178005894
-1.376320557
-0.02096805509
-0.07164845326
-1.602867719
-0.1595066702
-0.2236398444
-0.6938826888
-0.2074163835
-0.3875570492
-1.444266073
-0.1827062599
-0.3508340104
-1.27718908
-0.1268555269
-0.1421465911
-1.320221513
-0.05119692682
-0.0961725639
-0.3501889814
-0.1392239699
-0.2484371231
-0.5117326157
-0.2604920294
-0.4751033929
-0.2597641846
-0.2802510506
-0.4795770398
-0.7165094924
-0.09325799497
-0.1545715106
-0.269559808
0.1459954318
-0.3122189018
0.1330653568
0.3406446581
0.5778973062
0.1153600257
0.655943703
-0.7373260731
0.1254836715
0.2550859967
-0.1047922069
-0.1169072611
0.01489813469
-1.327768493
-0.08419985707
0.3354889825
-0.3643642118
0.0786541968
0.3232461415
-1.812821147
-0.001755642028
-0.02946316618
-1.315376845
-0.1029720726
-0.01570540684
-2.039785072
0.05083119697
0.1501255261
-1.197902567
0.02515908735
0.03049826742
-1.804875392
-0.1818118005
-0.3089033165
-1.066941421
-0.2080269312
-0.4869766694
-1.542803557
-0.08451080966
-0.2328424566
-0.9677001713
0.001253375263
0.07992656536
-1.145825497
-0.02965973957
0.006927364619
-0.5972399924
-0.2028525879
-0.2901250764
-0.8774538934
-0.2515182907
-0.5477442746
-0.4163477667
-0.1777388055
-0.4519508283
-0.5716371334
0.02121639147
-0.007784095929
0.06301991027
0.2001767236
-0.1353520155
0.1392230292
0.2199940839
0.7042964602
0.03617017286
0.4720527116
-0.7029385648
0.02078709352
0.1267105819
-0.4534571473
-0.0997259084
-0.1214934469
-1.715707894
-0.08561794511
0.1012046539
-0.2879227993
0.0989617455
0.1460665945
-1.668393826
0.06371820768
-0.03793070681
-1.180307639
-0.02315882789
0.04481714056
-1.710492765
0.07642965347
0.2159122407
-0.9631797448
0.01371745574
0.1058565003
-1.972010021
-0.1701979931
-0.2466700012
-1.495660772
-0.1627309237
-0.4120626045
-1.700448135
-0.02703123927
-0.1196168252
-0.6053872005
0.06878818624
0.1847554192
-0.8709526136
-0.009114352003
0.09094642881
-0.7755391978
-0.1781182903
-0.2200430602
-1.22757056
-0.1965037272
-0.4425587417
-0.5613823376
-0.08711832997
-0.3256328312
-0.3629869266
0.07422324861
0.05768307098
0.4697240666
0.1937406242
0.07597212254
0.1118022609
0.1470231826
-0.009685090025
0.1903957557
-0.003703368028
0.03617792789
-0.03473979069
-0.05602601668
0.009032567669
0.0168827912
0.06273108726
0.05058992816
0.05389895033
-0.007941041978
0.01610837115
0.04120264648
0.04094858299
0.11228193
0.01274288047
0.02564306155
-0.06451516325
-0.1491542283
-0.05314928616
-0.1995453058
0.02084827317
-0.0431349259
0.05793181117
0.09697526308
-0.0002606468246
0.05420688904
-0.08246006415
-0.1012712175
-0.08007051735
-0.2131773724
-0.02328813768
-0.1443520218
0.05535720202
0.04589614224
0.09352579914
0.04877455879
2.919492775
0.1053691563
-0.2087516826
2.495175406
0.05335578189
0.355019374
1.796419334
-0.3343507158
-0.2453548685
0.9444970039
-0.4367252699
0.2356216902
0.4312969783
-0.2551610135
-0.02442252085
-0.3089441876
-0.2563942119
0.02840237405
-1.073711543
-0.1815934416
-0.392364551
-1.687064068
-0.09144422144
-0.1078362846
-1.924195554
-0.02809890046
-0.4137999325
-1.832598796
-0.0396777666
-0.6914108469
-1.798063193
0.0006985048005
-0.9038351168
-1.766462534
0.1259479536
-0.8791349713
-1.560331637
0.3946064595
-0.8353559176
-0.9979980137
0.476958225
-0.9245851256
-0.3585879883
0.476312777
-0.942601936
0.2565926383
0.3445107551
-0.9287832516
0.6913621428
0.2721572607
-0.7696053393
0.9743704183
0.1455424144
-0.5524387742
1.05178412
0.06595625202
-0.2903659199
-0.01990268936
-0.07898906291
2.878646955
0.1655055278
-0.1391684009
2.35079711
-0.003389911829
0.3970028385
1.736442466
-0.5622840732
-0.2229707518
0.9904944081
-0.7146411316
0.226463346
0.4682683571
-0.4461190323
-0.08087115587
-0.2722057425
-0.4613157812
-0.05609682791
-1.039314417
-0.4138999756
-0.4536670857
-1.664365687
-0.2742977916
-0.1410285306
-1.922606563
-0.05935935085
-0.376860976
-1.815257033
-0.03027506005
-0.6332520649
-1.725379491
0.05659708969
-0.8917181538
-1.660362386
0.2497410148
-0.9205847558
-1.496960214
0.7165031144
-0.8699927281
-1.012128146
0.847891301
-0.8902866828
-0.4135742834
0.8623904117
-0.8775137449
0.2023314312
0.6444222336
-0.9004712488
0.6391443175
0.5450371864
-0.7775414685
0.9284981589
0.3361446876
-0.5578756309
1.025753249
0.1872979125
-0.2863957098
-0.00829080718
-0.07266881282
2.806556457
0.1212393478
-0.06165927447
2.149215748
-0.2337462582
0.4574153388
1.653605354
-0.6543974731
-0.1523276701
1.055403824
-0.8196372203
0.2457620147
0.5162270118
-0.5835321442
-0.1393172465
-0.2366867393
-0.5994071472
-0.1024014891
-0.9697417693
-0.632901771
-0.511321557
-1.569161876
-0.529503627
-0.20499567
-1.881500921
-0.12740896
-0.3658296499
-1.788706583
0.0184077518
-0.5471863531
-1.606280173
0.2046132331
-0.8896656263
-1.491847848
0.379981004
-0.9748214019
-1.389774925
0.9237822337
-0.95244498
-1.031935176
1.066719416
-0.872882373
-0.4970355001
1.145133573
-0.8337709372
0.1178308543
0.8883768902
-0.8851325193
0.5550618851
0.7813410154
-0.7907847456
0.8419460709
0.5228903096
-0.5405646122
0.9486335308
0.3322733088
-0.2442724968
0.02136011808
-0.04278632802
2.69350264
-0.05422289045
-0.01725055559
1.970174198
-0.6323254435
0.4830280949
1.577927851
-0.6564106594
-0.04551810298
1.101592086
-0.8281753498
0.2673224834
0.5506219708
-0.6953376234
-0.1868989391
-0.237272761
-0.7174923463
-0.07971089567
-0.903912396
-0.7627100394
-0.4888548449
-1.400737135
-0.7676839046
-0.2754687151
-1.771224562
-0.2560242834
-0.3933136031
-1.750913939
0.07848613623
-0.5133136121
-1.475945255
0.4205651669
-0.8987554801
-1.306117265
0.5159601594
-1.048012549
-1.250880286
1.001772586
-1.038852529
-1.030111605
1.131960631
-0.885463931
-0.5687218649
1.339510931
-0.8148872694
0.02977422077
1.105566143
-0.9020757571
0.4543897366
0.9586519907
-0.8021709984
0.7260048869
0.6265516203
-0.5037244755
0.8306252153
0.4244736548
-0.1761462107
0.04235558864
0.005953986174
2.517784321
-0.2672231827
-0.05958105358
1.880377488
-1.02322045
0.4242359585
1.519531133
-0.5998416499
0.02016285329
1.098563441
-0.8098290267
0.2601277769
0.5634907378
-0.7965264081
-0.2291865944
-0.249602351
-0.8604694856
-0.01244295925
-0.8484444591
-0.7647186966
-0.3875560265
-1.217042738
-0.897116886
-0.2876727493
-1.559532106
-0.3752384744
-0.4721098713
-1.605931206
0.09254766468
-0.5396029723
-1.361944211
0.6675105665
-0.9309089656
-1.162329795
0.6209439361
-1.020015147
-1.127437456
0.9631566371
-1.079950255
-0.9925973641
1.067821352
-0.9006572365
-0.6249953678
1.483481935
-0.8338456904
-0.0798338529
1.286289447
-0.903675578
0.3195669382
1.083142122
-0.7672632565
0.5827078431
0.6015320977
-0.4313270364
0.6876416079
0.4269361823
-0.1032862061
0.03658155896
0.04480639515
2.307276885
-0.3577679032
-0.1863963002
1.922862906
-1.178876785
0.2957449768
1.494109171
-0.5236777167
0.01700431088
1.041714589
-0.8268371601
0.2011517979
0.5547851892
-0.9007507799
-0.2703030896
-0.2619622624
-1.066558849
0.03846684895
-0.8462874344
-0.6875408623
-0.2300591551
-1.06253851
-0.8745511277
-0.2398182837
-1.28280562
-0.4176476098
-0.5867000814
-1.399012652
0.04970117457
-0.6606900656
-1.268929008
0.8047205991
-0.9557660698
-1.076166177
0.6285913447
-0.9271038136
-1.007960674
0.8658284516
-1.051005036
-0.8833216236
0.9434348714
-0.9592296402
-0.6409387661
1.564825404
-0.9009720266
-0.2086829001
1.396904795
-0.8808362322
0.1459010045
1.150092336
-0.670660101
0.429338837
0.4990192652
-0.3487417216
0.5561728679
0.3545314091
-0.07854744208
0.006569732367
0.0480737708
2.084360562
-0.2446453159
-0.3492521609
2.019032192
-1.050674282
0.110599863
1.488237453
-0.5380190669
-0.05293289856
0.9516905679
-0.9801562962
0.1152937231
0.5480635002
-1.025973535
-0.3003781955
-0.2000934785
-1.382702558
0.04400086199
-0.7981176483
-0.6436377374
-0.0978625749
-0.9339261665
-0.7113171742
-0.1669909013
-0.965042572
-0.3560474906
-0.6977465847
-1.111709499
-0.09778999157
-0.8009264653
-1.18845635
0.7562994812
-0.9731865453
-1.084232903
0.5250433714
-0.7222151611
-0.9042433369
0.7912004738
-0.9598018856
-0.7239123736
0.774142684
-0.9924806211
-0.634962501
1.520871886
-0.9681095857
-0.3778460023
1.34590574
-0.8116672816
-0.07980825603
1.144485955
-0.5154332441
0.2594508199
0.4151244054
-0.2764025685
0.4468863296
0.2868209877
-0.1001187073
-0.02824162095
0.0025553119
1.8928203
0.002153267807
-0.430585501
2.02221535
-0.7309957097
0.01284794619
1.44236023
-0.7118273265
-0.135613662
0.8308231897
-1.244752364
0.08253149479
0.5311921469
-1.105447789
-0.2875474329
-0.06982718201
-1.681738464
0.001998170461
-0.6980211329
-0.6877110708
-0.07692591082
-0.8448290898
-0.5540185681
-0.1524293689
-0.7519910233
-0.1755759286
-0.7811326156
-0.9052525212
-0.3408334182
-0.9202717938
-1.100757141
0.5003236559
-1.007356221
-1.064169115
0.3867901058
-0.5996090424
-0.7757554862
0.8305119541
-0.8880168773
-0.5375662414
0.6338674485
-1.049804915
-0.576645219
1.30266056
-1.041374981
-0.5388764608
1.115517262
-0.7313009488
-0.3188595621
1.090521304
-0.3707997893
0.09060667302
0.3923876309
-0.2243478762
0.3673471298
0.2875002019
-0.1714586361
-0.0433729547
-0.06751185592
1.688869935
0.2524386093
-0.3361626046
1.841339859
-0.4895097924
0.04770310749
1.348685773
-0.8522588432
-0.1770858088
0.7267455195
-1.474404639
0.1123373497
0.5270019527
-1.050837365
-0.2130580124
0.1509220137
-1.749386112
-0.04505394041
-0.4628344548
-0.8264723754
-0.1650795216
-0.7361029097
-0.5404347575
-0.2187821178
-0.6315910926
-0.0271794573
-0.6892286511
-0.7123642017
-0.5808294187
-0.8648783154
-0.9512594876
0.1087536351
-0.8814083397
-1.008823636
0.2140776742
-0.5168517699
-0.6960684891
0.9205508161
-0.782239139
-0.4245242617
0.5204370648
-1.031226728
-0.5425272197
0.9365430374
-1.048532575
-0.6643210984
0.6924133805
-0.6535240156
-0.5359087795
0.9285166155
-0.2630656482
-0.07236868535
0.4235509638
-0.1870576193
0.281279045
0.3979169046
-0.2401618042
-0.03644541298
-0.1374771422
1.484953664
0.3869323305
-0.1222298279
1.522006457
-0.4233022136
0.2083497618
1.246494495
-0.75031894
-0.1559547151
0.6802963893
-1.485914712
0.1844081362
0.5025084989
-0.7592771099
-0.09143948319
0.3488458207
-1.509034056
-0.05068034335
-0.1964899114
-0.9349990193
-0.3524784382
-0.6599778552
-0.7488472422
-0.3552575065
-0.6849685149
0.02327350194
-0.543579514
-0.6348636027
-0.7296119974
-0.6797950585
-0.7347892949
-0.1904531314
-0.8918999178
-0.847403559
0.03398521956
-0.5892307601
-0.6465816637
0.9868041671
-0.7799552906
-0.391597936
0.4405571999
-0.9559176883
-0.5097617491
0.5652374994
-0.9866348685
-0.6877808444
0.1808415362
-0.6098890809
-0.6404544473
0.6551992356
-0.2344988063
-0.204337133
0.4430137203
-0.1710578585
0.1774038095
0.5736564717
-0.2514774522
3.682698125e-05
-0.1510873777
1.31435885
0.3918374708
-0.004476754408
1.176469851
-0.4890576164
0.2576052902
1.115232712
-0.4430521388
-0.1708123501
0.6899511215
-1.414672951
0.2068049088
0.4779360267
-0.5019302504
0.01315473772
0.4130187396
-1.190463591
-0.03049784185
0.04432333983
-0.9538928945
-0.4694938433
-0.4858400532
-1.099081682
-0.4776694973
-0.7189244375
-0.07193665352
-0.3504140386
-0.5885571419
-0.7406294928
-0.4448601549
-0.4825719519
-0.337308135
-0.7858165327
-0.6362800806
-0.2424320562
-0.7024601761
-0.6620955154
0.8419501497
-0.767828062
-0.5032309952
0.3311992756
-0.7893634724
-0.537394167
0.2772253017
-0.8083404901
-0.6455870825
-0.2805106727
-0.5636242603
-0.6189608812
0.33351979
-0.251489114
-0.2794575228
0.3745249129
-0.16281256
0.04191813051
0.7033100223
-0.1953079297
0.05826383519
-0.1109335844
1.248774285
0.3419596406
-0.03713677464
0.9759046746
-0.6258451338
0.1677294663
1.007877676
-0.1798033975
-0.215202291
0.7524960246
-1.44268042
0.1846998942
0.4338809046
-0.5151820267
0.0772975409
0.334484142
-1.087716104
0.000417087539
0.1553455728
-0.9047939897
-0.4745455477
-0.3396635595
-1.44955209
-0.5204796226
-0.7235703702
-0.2773279765
-0.2915628967
-0.5859428058
-0.7283485087
-0.2637511548
-0.2715473314
-0.3267887585
-0.6934492285
-0.3840033483
-0.621257767
-0.8026132529
-0.6550849627
0.4570607156
-0.8207195648
-0.6841935334
0.1206869858
-0.6216375839
-0.623780014
0.1361235486
-0.5771365599
-0.5403997493
-0.5527591203
-0.486652058
-0.4622315041
0.06776366399
-0.3013651472
-0.2643536919
0.2002797486
-0.1785627127
-0.09278812009
0.7109223654
-0.1236363729
0.08139366644
-0.03747815617
1.183588469
0.270943234
-0.1622054876
0.8175467057
-0.8405709762
-0.02027012753
0.8317026456
-0.2166255509
-0.2240417769
0.754202091
-1.592319404
0.1300308777
0.4171137942
-0.8562185341
0.05086720926
0.2210922169
-1.335371937
-0.03771794057
0.1964842848
-0.8300877585
-0.4042446996
-0.1470159704
-1.631452845
-0.5065319282
-0.5921687654
-0.5596158794
-0.319844428
-0.5627986491
-0.8248222331
-0.1834881882
-0.1734900243
-0.3201208524
-0.4695296291
-0.1872434652
-0.9823114336
-0.7975307676
-0.5749783151
-0.1052184174
-0.847625105
-0.8319193219
-0.2416219849
-0.4817580445
-0.7573394131
0.06872075149
-0.3269973713
-0.4626799975
-0.5836789874
-0.3554667735
-0.2598389094
-0.08077117227
-0.3370323353
-0.1724465061
-0.01837544844
-0.2334808076
-0.2106244752
0.5494223458
-0.08657370294
0.01955521781
0.009085784525
1.085890027
0.2198387056
-0.2110795211
0.7012015546
-1.043639792
-0.05075690675
0.6463226242
-0.3968903785
-0.1559522704
0.7157626404
-1.719419398
0.1381714949
0.455558861
-1.176116517
-0.004637242514
0.177345444
-1.72403273
-0.134439599
0.1737623248
-0.7680665615
-0.3427985284
-0.02588050464
-1.646548548
-0.4155326194
-0.4591510235
-0.8504139336
-0.3977316818
-0.5765419112
-1.113328257
-0.1601648816
-0.1992951006
-0.3745291171
-0.2672562706
-0.07375784292
-1.145639201
-0.6820588298
-0.4483339202
-0.6266899871
-0.8477448089
-0.8493911217
-0.7453614175
-0.3984223652
-0.8486830671
-0.04669246509
-0.1582826893
-0.4348148204
-0.4452145841
-0.2256984769
-0.09135804773
-0.01808182669
-0.3786740819
-0.07169417661
-0.2049418112
-0.3168645602
-0.2778290966
0.2942371584
-0.1149373135
-0.129850857
0.02634330923
0.8616213961
0.191272159
-0.0877403622
0.5105605134
-1.184736322
0.06479604568
0.436068928
-0.4533429844
-0.07498654632
0.6041538955
-1.523628786
0.1220909601
0.5301569818
-1.123394838
-0.07631862636
0.2644586185
-1.913615596
-0.2864856404
0.1843483083
-0.7776575845
-0.3655611558
0.0354477849
-1.641192946
-0.3327071885
-0.3243882559
-1.074654488
-0.3704935813
-0.497646376
-1.456800186
-0.1836266267
-0.2433863043
-0.4638461472
-0.1540980473
-0.04840628197
-1.080625843
-0.517019661
-0.3027969459
-0.8922078364
-0.7380029089
-0.6986878755
-1.216115391
-0.3661988875
-0.8207238245
-0.2803676176
-0.1014110901
-0.423226597
-0.2920823781
-0.1526158066
-0.01919464543
0.2002428478
-0.3832714986
-0.01171237265
-0.2602938036
-0.3952904216
-0.2889506705
0.04365780833
-0.1483457211
-0.2876411523
0.01927721907
0.6430959125
0.2028597164
0.1038215682
0.405532572
-1.224480873
0.2820962459
0.3491503447
-0.2424234009
-8.652189729e-06
0.4851597458
-1.172788373
0.1182769881
0.5454825424
-0.7344551211
-0.02097307146
0.360182721
-1.82568918
-0.2454117413
0.1713904786
-0.8824905722
-0.3494037919
-0.003514040351
-1.728964624
-0.1762374227
-0.2563774421
-1.234289582
-0.2046071898
-0.3795207578
-1.728324679
-0.1861480321
-0.2638403926
-0.5431833646
-0.1729407606
-0.1431066912
-0.9860461343
-0.3560049578
-0.2539910953
-0.9050076707
-0.5201571078
-0.5029275227
-1.483587415
-0.3079868762
-0.6303657619
-0.5117788333
-0.1609406182
-0.365322638
-0.2708010541
-0.1688553907
-0.0481752701
0.354280589
-0.3778943281
-0.03844760596
-0.2586642532
-0.3615131224
-0.2560358139
-0.09412366748
-0.1200654444
-0.3726212857
0.04694932214
0.4111318778
0.2320612265
0.2206947174
0.3301946204
-1.164495274
0.3337305569
0.2719539541
0.02216467705
-0.01254157338
0.3191775764
-0.9781866646
0.01208694536
0.4279100363
-0.3624852544
0.07039498361
0.3524642721
-1.652859574
-0.1310701777
0.152071165
-0.9600055609
-0.3155368815
-0.0399750248
-1.838508893
-0.05929029075
-0.1611207596
-1.282525733
-0.04233533627
-0.1642300485
-1.822370931
-0.2323219356
-0.1848174821
-0.666981709
-0.2894945178
-0.2578099773
-1.02860434
-0.2532452539
-0.2828162706
-0.808502508