/*--------------------------------*- C++ -*----------------------------------*\
| =========                 |                                                 |
| \\      /  F ield         | OpenFOAM: The Open Source CFD Toolbox           |
|  \\    /   O peration     | Version:  5.x                                   |
|   \\  /    A nd           | Web:      www.OpenFOAM.org                      |
|    \\/     M anipulation  |                                                 |
\*---------------------------------------------------------------------------*/
FoamFile
{
    version     2.0;
    format      ascii;
    class       volScalarField;
    location    "5.2";
    object      rho;
}
// * * * * * * * * * * * * * * * * * * * * * * * * * * * * * * * * * * * * * //

dimensions      [1 -3 0 0 0 0 0];

internalField   nonuniform List<scalar> 
30538
(
1.274305477
1.289670773
1.289834005
1.289840749
1.289895643
1.289795206
1.289810767
1.289786267
1.289874237
1.289912781
1.289821437
1.289719077
1.289664129
1.289676095
1.289658885
1.289608355
1.289532054
1.289493931
1.289582017
1.294317265
1.274305058
1.289646757
1.289857389
1.28987752
1.289915445
1.289827412
1.289830094
1.28979114
1.289860559
1.289915992
1.289858246
1.289760454
1.289684679
1.289683468
1.289678483
1.289648874
1.289578986
1.289536884
1.289618438
1.294295651
1.274412427
1.289585362
1.289845404
1.289886631
1.289899337
1.289824379
1.289827883
1.289777689
1.289815229
1.289890656
1.289886694
1.289800783
1.289695092
1.289676294
1.289693016
1.289694455
1.289630193
1.28957118
1.289638699
1.294336792
1.274452419
1.289532779
1.289815934
1.289865422
1.289859074
1.289784424
1.289808221
1.289769182
1.289778782
1.289858045
1.28990592
1.289837231
1.289715658
1.289686326
1.289725314
1.289755917
1.289693439
1.289609222
1.289653519
1.294236142
1.27481662
1.289525229
1.289769144
1.289814968
1.289799096
1.289715859
1.289766041
1.289760489
1.289761302
1.289823919
1.289892126
1.289849528
1.289744363
1.289720417
1.289770777
1.289815927
1.289755933
1.289654297
1.28966985
1.294316243
1.275045705
1.289567618
1.289711705
1.289742486
1.289732689
1.289640485
1.289702085
1.289746042
1.289764842
1.289791074
1.289840069
1.289832513
1.28978335
1.289780044
1.289817913
1.289856592
1.289806405
1.289710722
1.28970158
1.294160664
1.275716039
1.289639294
1.289649128
1.289657235
1.289675889
1.289585721
1.289629699
1.289720316
1.289778788
1.28976079
1.289765671
1.289795162
1.289838128
1.289860095
1.289860191
1.289875619
1.289840186
1.289776443
1.289756745
1.294239222
1.27608032
1.289684319
1.28959857
1.289582646
1.289639334
1.289574392
1.289576918
1.28968103
1.28978362
1.289735576
1.289701721
1.289768996
1.289903799
1.289946293
1.289898977
1.289879291
1.289859621
1.289841062
1.289826283
1.294035902
1.276952813
1.289676588
1.289583955
1.289537467
1.289620049
1.289603528
1.289559619
1.289636124
1.28975909
1.289723215
1.289686454
1.289768433
1.289958356
1.290015116
1.289936283
1.289884438
1.289871724
1.289890307
1.289886892
1.294036555
1.277377366
1.28962366
1.289611238
1.289536422
1.289608121
1.289642268
1.289577342
1.289590147
1.289702565
1.289720129
1.289728874
1.289795441
1.28997805
1.290045553
1.289975789
1.289913561
1.289891298
1.289913172
1.289908837
1.293738804
1.278462818
1.289587161
1.289657742
1.289560771
1.289575674
1.289640956
1.2896076
1.289561697
1.289636666
1.289726591
1.289805848
1.289834803
1.289956173
1.290028852
1.290009669
1.289972885
1.289928258
1.289910104
1.289885093
1.293591494
1.279031339
1.289575436
1.289697289
1.289599243
1.289530512
1.289598354
1.289625609
1.28955382
1.289596187
1.289728746
1.289878882
1.289866454
1.289909873
1.289971789
1.290035154
1.290048834
1.289981034
1.289894919
1.28983004
1.293216247
1.280409058
1.289593734
1.289706211
1.289644043
1.289501188
1.289547974
1.289631267
1.289573658
1.289591784
1.289728681
1.289913112
1.289892142
1.289872893
1.289906647
1.290035281
1.290116428
1.290036454
1.289886973
1.289772966
1.292919089
1.28110981
1.289619732
1.289706873
1.289689706
1.289532153
1.289543017
1.289640682
1.289611228
1.289616211
1.289729259
1.289912974
1.289914139
1.289869532
1.289868399
1.290014149
1.29014503
1.290078079
1.289893124
1.289744967
1.292523627
1.282691891
1.289650969
1.28971611
1.289739128
1.289615157
1.289592069
1.289659369
1.289651586
1.289653011
1.289742373
1.289899609
1.289921789
1.289884243
1.289869062
1.289991509
1.290125588
1.290076449
1.289900685
1.289749491
1.292123371
1.28345595
1.289693988
1.289734884
1.289751917
1.28968464
1.289647143
1.289677083
1.289680158
1.289693089
1.289770126
1.289881117
1.289892215
1.289891364
1.289897678
1.289989505
1.290074028
1.29002281
1.289885488
1.289769949
1.291742799
1.285202442
1.289756842
1.289741629
1.289727319
1.289695454
1.289673052
1.289686241
1.289694238
1.289734508
1.289811662
1.28984878
1.2898309
1.289868304
1.289931673
1.289999726
1.290006156
1.289932802
1.289842616
1.289780852
1.291232503
1.286018752
1.289813899
1.289731051
1.289689394
1.289679861
1.289670719
1.289682286
1.289700257
1.289766629
1.28984232
1.289806624
1.289761404
1.289824802
1.28993418
1.289992547
1.289936682
1.289843055
1.289789452
1.289778738
1.290865085
1.287922372
1.289763149
1.289717041
1.289540603
1.289631923
1.289502129
1.289642424
1.289579359
1.289753415
1.289767506
1.289765335
1.289685959
1.289785019
1.28988113
1.289964094
1.289873624
1.289811358
1.289751357
1.289770098
1.290289377
1.298458623
1.274156654
1.293719456
1.27046062
1.289129817
1.269576548
1.286608351
1.271505928
1.286547032
1.275550894
1.288651307
1.280660168
1.291788245
1.285283488
1.294294109
1.288042597
1.295081966
1.288444383
1.294042881
1.287157912
1.271411563
1.289623253
1.289889027
1.28986644
1.289851886
1.289855492
1.289878502
1.289800839
1.289853124
1.289912776
1.289861339
1.289771335
1.289691548
1.289675261
1.289652285
1.289610049
1.289575836
1.289565011
1.289670337
1.295418144
1.271414093
1.289609183
1.289887134
1.28988134
1.289875145
1.289889991
1.289911772
1.28981729
1.289838198
1.289901162
1.289880039
1.289810819
1.289723809
1.289689207
1.289661401
1.289638043
1.289615158
1.289600489
1.289696746
1.295426357
1.271507729
1.289557524
1.28984487
1.289858752
1.289864329
1.289877522
1.289914709
1.28981848
1.289799061
1.289857731
1.28988145
1.289849324
1.289755916
1.289693693
1.289665846
1.289669029
1.289659286
1.289628067
1.289703456
1.295481566
1.271585013
1.289518533
1.289786681
1.289818381
1.289836502
1.289827219
1.289880406
1.289811825
1.28977779
1.289822212
1.289879351
1.289885234
1.289796792
1.289714372
1.289690003
1.289722046
1.289719427
1.289663273
1.289708907
1.295464689
1.271929929
1.289519119
1.289732447
1.289775022
1.289795636
1.289750985
1.289806601
1.289788271
1.289773398
1.289805825
1.289865219
1.289895385
1.289829949
1.289755494
1.289737336
1.289783631
1.289776913
1.28969836
1.289717657
1.29555708
1.272220214
1.289556673
1.289700407
1.289737191
1.28975418
1.289680285
1.28971075
1.289740666
1.289782794
1.289811439
1.289840108
1.289870716
1.289851081
1.289816529
1.289805925
1.289836436
1.289813588
1.289732427
1.289742023
1.295514584
1.272885916
1.28962403
1.289691726
1.289706006
1.28972033
1.289638185
1.289620497
1.289682451
1.289798022
1.28983218
1.289810623
1.289817078
1.289862684
1.289893177
1.289887676
1.289874695
1.289825822
1.289767077
1.289785537
1.295585705
1.27335514
1.289663544
1.289687729
1.289671549
1.289689111
1.289626813
1.289573264
1.289634966
1.289803192
1.289848699
1.289787836
1.289769896
1.289878362
1.289975853
1.289970274
1.289903385
1.289825486
1.289799807
1.289843894
1.295476012
1.274259721
1.289643157
1.289676681
1.289629567
1.289646486
1.289626882
1.289579299
1.2896204
1.289770329
1.289836405
1.289790104
1.289761676
1.289895873
1.290039528
1.290040123
1.289934476
1.289830285
1.289827373
1.289894281
1.29542333
1.274835726
1.289575019
1.289660062
1.28959481
1.289598563
1.289619921
1.289626883
1.289635904
1.289704711
1.289789889
1.289819273
1.289799412
1.289913866
1.29005935
1.290080155
1.289975217
1.289857057
1.289847756
1.289911226
1.295157637
1.276037558
1.289551557
1.289667393
1.289586073
1.289556139
1.289598143
1.289669372
1.289660699
1.289646292
1.289737372
1.289860854
1.289870425
1.289932051
1.290032877
1.290078444
1.290016692
1.289906005
1.289865141
1.289895437
1.294880128
1.276855378
1.289589258
1.289704434
1.289607406
1.289537414
1.289577048
1.289676677
1.289678764
1.289635621
1.289702148
1.289881737
1.289938512
1.289956819
1.289979929
1.29003652
1.290042345
1.289964515
1.289890105
1.28986731
1.294471133
1.278441377
1.289676096
1.289730134
1.289638788
1.289551808
1.289578125
1.289666255
1.289692589
1.289671249
1.28969811
1.289862371
1.289978074
1.289989596
1.289937469
1.289967738
1.290030029
1.290011906
1.289929029
1.28985671
1.29399703
1.279423524
1.289722083
1.289738043
1.289659167
1.289599685
1.28962588
1.289672224
1.289704344
1.289726062
1.289713664
1.289816365
1.289975997
1.290027
1.289927824
1.289900851
1.289989476
1.290040551
1.289978158
1.289871945
1.293540201
1.281216069
1.289713413
1.289727045
1.289674504
1.289657154
1.289697093
1.28970781
1.289714235
1.289751804
1.289740628
1.28979032
1.28993908
1.290032967
1.289942158
1.289877926
1.289949968
1.290035683
1.290005337
1.289890074
1.292933564
1.282228372
1.289673242
1.289717516
1.289689433
1.289680256
1.289730268
1.289746142
1.289714416
1.289740081
1.289769544
1.289802523
1.289888879
1.28998191
1.289949399
1.289904735
1.289939402
1.290001875
1.289975821
1.28987479
1.292455442
1.28420915
1.289673137
1.289726212
1.289715938
1.28967038
1.289716231
1.289756342
1.28970304
1.289718718
1.289807072
1.289840848
1.289842411
1.289886975
1.289930999
1.289952479
1.289953098
1.28994921
1.289898857
1.289809596
1.29171204
1.285289041
1.289715107
1.289760564
1.289750716
1.289669975
1.289692254
1.289738081
1.28968829
1.289717893
1.289837721
1.289870171
1.289805675
1.289793739
1.28988312
1.289971675
1.289954842
1.289893046
1.28981308
1.289742699
1.291243241
1.287490688
1.289687637
1.289773086
1.289623986
1.2896485
1.289490369
1.289656265
1.28954086
1.289701469
1.289759077
1.289851438
1.289751163
1.289746647
1.289815744
1.289962028
1.289926524
1.289880164
1.289764945
1.289721016
1.290460538
1.298324165
1.273100831
1.292542632
1.268559471
1.28699949
1.26730302
1.284089302
1.269480462
1.284558804
1.274234374
1.287722518
1.280112585
1.291974232
1.285348066
1.295401083
1.288328241
1.296545889
1.288410377
1.295266462
1.286686241
1.268597771
1.289552554
1.289954235
1.28990715
1.28981947
1.289904102
1.289962124
1.289848147
1.289834568
1.289867954
1.289890495
1.28985508
1.289745567
1.289662491
1.289616944
1.289600506
1.289621794
1.289644825
1.289784049
1.298988141
1.268593535
1.289579583
1.289933497
1.289879108
1.289831204
1.289933728
1.289999842
1.289876241
1.289829213
1.289848626
1.28988276
1.289877727
1.289785321
1.289689182
1.289619961
1.289601139
1.289637436
1.289673393
1.289813642
1.298993874
1.268751217
1.289597276
1.289860125
1.289809209
1.289817749
1.289913013
1.289993342
1.289885719
1.289818207
1.289806908
1.289842608
1.289887059
1.289832095
1.289722082
1.289623519
1.289607379
1.289660559
1.289694564
1.289816795
1.299190359
1.26879084
1.28961407
1.289772125
1.289745983
1.289802426
1.289867924
1.289934054
1.289871763
1.289822667
1.289784356
1.289810936
1.289904843
1.289892126
1.289771747
1.289655375
1.289649335
1.289708029
1.289723867
1.28981176
1.299138211
1.269224896
1.289610821
1.289712696
1.289711806
1.289783165
1.28981047
1.289833754
1.289812866
1.289822504
1.289801477
1.289809938
1.289903638
1.289919109
1.289822387
1.289717711
1.28971884
1.289755074
1.289739123
1.289793163
1.299452765
1.269417046
1.28957014
1.28970308
1.289719051
1.289767761
1.289769337
1.289728037
1.289717568
1.289808
1.289852659
1.289848848
1.289884845
1.289904274
1.289865751
1.289809222
1.289799788
1.289784595
1.289737027
1.289776679
1.299317702
1.270187632
1.289541177
1.289752262
1.289764724
1.289754052
1.28975312
1.289652811
1.289620988
1.289783352
1.28991874
1.289907055
1.289855613
1.289857004
1.289903534
1.289919037
1.289880882
1.289794588
1.289730148
1.289778507
1.29958768
1.270550128
1.289522166
1.289814121
1.289798532
1.289721695
1.289728204
1.289641052
1.289581465
1.289756877
1.289967129
1.289964666
1.289821832
1.289805544
1.289939968
1.290026409
1.289954557
1.289804163
1.289733287
1.289807104
1.299308537
1.271672825
1.289516786
1.289806354
1.289773844
1.289653399
1.289657625
1.28967771
1.289629855
1.289717996
1.289940691
1.289980411
1.289827066
1.289795083
1.289967694
1.290095034
1.290010732
1.289830354
1.289752803
1.2898452
1.299325326
1.272196779
1.289501171
1.28972864
1.28970169
1.289570871
1.289561435
1.289735188
1.289741051
1.289692863
1.289839189
1.289949512
1.289874889
1.289846935
1.289981982
1.290104851
1.290037541
1.28986992
1.289787208
1.289871982
1.298798616
1.273768289
1.289548604
1.289668343
1.289652753
1.289547211
1.289511221
1.2897474
1.289830863
1.289698944
1.289733779
1.289889585
1.289949333
1.289946339
1.28998531
1.290060668
1.290033371
1.289911556
1.289831317
1.28988658
1.298420685
1.274554294
1.289648414
1.289681726
1.289649796
1.289606708
1.289541885
1.289710313
1.289858194
1.289745952
1.289686505
1.289824344
1.290011497
1.29005555
1.289997978
1.28999323
1.289993983
1.289938854
1.289878245
1.289890369
1.297673005
1.276599375
1.289786908
1.289741648
1.289654792
1.289693156
1.289644157
1.28965822
1.289826765
1.28982997
1.289714279
1.289762766
1.290022579
1.290133644
1.290024294
1.289931377
1.289921742
1.289940382
1.289928925
1.289911792
1.296948668
1.277537051
1.289833713
1.289779539
1.289632669
1.289733682
1.28975494
1.289660938
1.289783844
1.289905121
1.289770842
1.28972091
1.289976826
1.29015613
1.29004734
1.289889357
1.28984479
1.28992336
1.289979666
1.289954937
1.296110629
1.279844375
1.289792284
1.289758691
1.289593925
1.289708475
1.289817185
1.289726616
1.289768497
1.289901066
1.289798153
1.289713432
1.289913828
1.290111815
1.290042955
1.289870804
1.289799729
1.289912071
1.290022732
1.28999844
1.295147767
1.280794447
1.289685029
1.289713647
1.289606202
1.289654275
1.289792573
1.289806919
1.28976657
1.289823615
1.289787851
1.28974669
1.28987403
1.290018499
1.289992849
1.289868801
1.289804078
1.289917373
1.290022562
1.289992614
1.294283127
1.28335146
1.289634154
1.289713794
1.289694536
1.289621618
1.289734943
1.289831144
1.289746606
1.289726765
1.289774155
1.289820426
1.289869601
1.289899056
1.289903392
1.28987339
1.289850904
1.289926718
1.289969835
1.289908457
1.293111425
1.284365846
1.289645509
1.289783218
1.289811492
1.289658521
1.289713192
1.289808057
1.289709372
1.289676609
1.289785202
1.289896221
1.289878603
1.289797634
1.289810632
1.289867699
1.289889393
1.289916403
1.289888577
1.289804495
1.292262397
1.287192859
1.289591112
1.289831733
1.289668712
1.289699656
1.289485892
1.289693144
1.289506808
1.289658106
1.289722715
1.289906797
1.289845443
1.289754383
1.28975632
1.289880179
1.289912833
1.289922147
1.289840036
1.289756188
1.291044114
1.30035294
1.269661064
1.293631198
1.264410892
1.287186539
1.263406822
1.283830993
1.266933291
1.284559359
1.27354372
1.28835261
1.281331809
1.293234273
1.288138632
1.29695825
1.29191371
1.29758008
1.29154297
1.295037296
1.288756631
1.259486608
1.28939167
1.29000005
1.289947402
1.289852143
1.28996417
1.290026454
1.289989313
1.289878554
1.289774801
1.289854789
1.289938754
1.289824711
1.289618976
1.289512136
1.289562237
1.289649561
1.289705286
1.289889872
1.304077046
1.259474968
1.289509402
1.289965677
1.289877281
1.289826467
1.289943195
1.290042871
1.290008623
1.289888829
1.289783259
1.289847776
1.289930946
1.289853235
1.289689056
1.289588968
1.289588344
1.289634686
1.289682474
1.289883676
1.3042236
1.25952951
1.289655535
1.28988818
1.289773534
1.289790842
1.289899754
1.290000301
1.289985104
1.2899056
1.28979778
1.289807919
1.289885522
1.289877594
1.289774652
1.289659588
1.289595084
1.289611919
1.28966924
1.289879417
1.304537365
1.259572403
1.289748577
1.289806278
1.289697027
1.289769877
1.28988493
1.289921466
1.289924901
1.28993233
1.289840218
1.289771728
1.289837265
1.289912539
1.28986498
1.289721966
1.28959507
1.289607492
1.289693013
1.289904634
1.304877565
1.259798226
1.289698964
1.289756911
1.289674478
1.289755988
1.289885032
1.289838295
1.289819482
1.289912648
1.289890434
1.289794581
1.289820525
1.289922818
1.289918528
1.289774737
1.289618322
1.289630497
1.289730883
1.289925285
1.305336783
1.259981391
1.289499744
1.289762884
1.289709874
1.289748003
1.289908214
1.289792723
1.28969863
1.289830209
1.289925856
1.289893307
1.289862129
1.289906035
1.289918041
1.289825837
1.28969116
1.289682078
1.289753739
1.289910132
1.305632541
1.260569927
1.289253008
1.289837979
1.289810476
1.289751573
1.289932512
1.289802156
1.289603326
1.289704407
1.289944139
1.290037731
1.289938546
1.289852123
1.289876015
1.289889452
1.289816498
1.289757547
1.289745447
1.289852207
1.305874474
1.261111456
1.289115428
1.289929786
1.289914234
1.289731094
1.289873698
1.289846426
1.289607671
1.289605441
1.289945509
1.290177077
1.290005797
1.289782869
1.289819058
1.289963256
1.289966387
1.289845329
1.289719105
1.289778029
1.30584562
1.262387469
1.289171931
1.289903686
1.289922199
1.289665061
1.289703658
1.289865596
1.289708273
1.289600439
1.289902715
1.290181368
1.290037743
1.289763375
1.289776706
1.290001626
1.29008636
1.289937077
1.289710745
1.289715045
1.305590264
1.263530076
1.289358278
1.289763227
1.289823023
1.289587631
1.289513174
1.289833473
1.289864963
1.289696728
1.289812773
1.290055248
1.290042572
1.289832416
1.28977909
1.289982202
1.290122464
1.290003878
1.289744179
1.289696879
1.305081006
1.265586158
1.28957043
1.289634636
1.289747567
1.289633605
1.28945586
1.289749033
1.289968929
1.289835153
1.289741027
1.289859625
1.290035566
1.289972915
1.289848689
1.289925017
1.290066963
1.290024146
1.289812279
1.289741551
1.30419843
1.267145737
1.289726048
1.289626217
1.289724158
1.289798329
1.289576681
1.289656869
1.289954813
1.289958063
1.289739694
1.289698588
1.290006969
1.290128796
1.289976124
1.289893855
1.289945428
1.289973492
1.289877713
1.289841853
1.303239349
1.269818778
1.289841869
1.289754686
1.289716101
1.28993128
1.289781667
1.289592003
1.289839052
1.29003845
1.289838356
1.289652157
1.289930295
1.29020997
1.290125005
1.28992624
1.289808826
1.289852941
1.289909862
1.289957497
1.301817862
1.27162477
1.289865847
1.289861893
1.289655043
1.289887639
1.289897671
1.289612975
1.289727667
1.290029606
1.289953556
1.289699714
1.28982241
1.290156392
1.290231085
1.289995829
1.289714466
1.289713773
1.289895208
1.290045757
1.300581423
1.274763329
1.289839763
1.289834576
1.28953879
1.289705972
1.289864936
1.289712848
1.289731996
1.28995965
1.289969511
1.289772639
1.289750785
1.290000897
1.290204781
1.290042336
1.289696073
1.289627238
1.289855611
1.290074488
1.298764637
1.276700131
1.28975986
1.289710339
1.289519555
1.289564637
1.289760747
1.289834579
1.28982514
1.289873266
1.289871137
1.289812064
1.289772302
1.289870995
1.290044712
1.290002609
1.289743531
1.28965415
1.289839707
1.290040137
1.297438341
1.2802418
1.289719247
1.289662759
1.289648172
1.289579393
1.28968854
1.28986084
1.289897088
1.289804155
1.289728944
1.289825358
1.289885871
1.289818015
1.289820683
1.289871909
1.289819906
1.289781966
1.289876481
1.289976181
1.295338373
1.282092999
1.28967558
1.289745612
1.289829674
1.289733673
1.289733583
1.289836916
1.28988161
1.28975449
1.289633892
1.289844609
1.290004963
1.289818782
1.289651045
1.289735445
1.289869312
1.289923063
1.289920848
1.289913464
1.294062481
1.285838732
1.28951746
1.289834499
1.289621515
1.28979692
1.289474896
1.289649014
1.289546743
1.289664033
1.28950794
1.289832836
1.290007439
1.289871034
1.289634355
1.289729128
1.289897737
1.290009149
1.289956204
1.28988636
1.291912235
1.299942302
1.265889225
1.289847155
1.257926854
1.280075304
1.25580709
1.275289215
1.260271215
1.277814821
1.269399654
1.285388921
1.280079999
1.294381572
1.28917026
1.301327887
1.29372708
1.303278082
1.292152913
1.299554006
1.287271648
1.252238937
1.289295489
1.289958484
1.289975091
1.289982755
1.29001562
1.289987578
1.290112731
1.289992325
1.289715231
1.28975954
1.289924093
1.289853204
1.289603945
1.289449423
1.28949837
1.289628658
1.289735939
1.289967479
1.313606542
1.252158447
1.289445161
1.289910114
1.289908441
1.289929593
1.289919623
1.289978949
1.290104031
1.289999255
1.289790063
1.289798763
1.289905053
1.289878482
1.289731401
1.289605395
1.289567989
1.289591042
1.28965571
1.289910136
1.313802105
1.252188744
1.289643145
1.289867682
1.289838112
1.289866867
1.289834371
1.28991225
1.290029363
1.290005307
1.289872231
1.289810157
1.289832104
1.289864419
1.289843055
1.289740065
1.28959821
1.28953288
1.289590745
1.289879161
1.314587238
1.251972119
1.289759496
1.289870349
1.289799865
1.289812959
1.289835132
1.289847903
1.289915496
1.289998035
1.289955188
1.289803939
1.289727886
1.289830951
1.289909452
1.289809275
1.289578199
1.289498161
1.289604477
1.289918678
1.315086643
1.252171041
1.289675318
1.28989318
1.289787498
1.2897596
1.289893575
1.289826998
1.289817697
1.289950725
1.289971907
1.289838974
1.289744841
1.289841128
1.289911291
1.289803994
1.289571474
1.289531945
1.289673482
1.289970994
1.316271302
1.252004973
1.289379184
1.289906131
1.289789782
1.289707896
1.28997332
1.289893953
1.28978108
1.289837005
1.28989713
1.289933424
1.28992083
1.289899422
1.289861707
1.289765863
1.289621509
1.289627847
1.28975229
1.289980614
1.316582722
1.25265983
1.289008116
1.289918666
1.289818948
1.289685422
1.290016805
1.29002869
1.28979337
1.289668975
1.289792218
1.290175994
1.290137727
1.289940862
1.289778839
1.289739406
1.289734701
1.289762157
1.289786675
1.289901779
1.317372467
1.252955352
1.2888058
1.289936424
1.289883758
1.28968421
1.289939718
1.290105244
1.289835281
1.289536373
1.289708976
1.290275023
1.290295308
1.289936585
1.289696348
1.289743812
1.28987801
1.289888448
1.289768004
1.289769112
1.317036185
1.254737083
1.288994686
1.289879513
1.289912118
1.289681537
1.289764403
1.2900237
1.289885682
1.289599262
1.289718241
1.290139433
1.290285693
1.289946601
1.289685302
1.289767022
1.289970832
1.289962275
1.289734477
1.289657594
1.316861409
1.255958929
1.289406367
1.28975598
1.289859614
1.289703742
1.289607045
1.289819336
1.28991804
1.28983594
1.289818697
1.289978979
1.290143463
1.289985389
1.289770835
1.289810308
1.289982033
1.289967755
1.289724474
1.289620869
1.315734942
1.258867493
1.289693084
1.289603581
1.289818125
1.28984658
1.289615741
1.289620862
1.289870367
1.290070777
1.289948444
1.289777793
1.289947614
1.290022501
1.28990631
1.28985892
1.289923704
1.289928944
1.289763203
1.289677467
1.314436115
1.260439853
1.289712306
1.289561995
1.289797013
1.290038725
1.289773741
1.289524768
1.289773206
1.290170052
1.290057737
1.289700743
1.289796481
1.290015187
1.290028913
1.289932239
1.289849475
1.289868983
1.289825626
1.289801019
1.312616106
1.264114134
1.289615942
1.289708568
1.289801606
1.290123405
1.289957728
1.289566987
1.28967438
1.290083517
1.290097144
1.289793605
1.289731792
1.289937284
1.290113959
1.290027532
1.289805394
1.289793385
1.289853098
1.289920295
1.310267365
1.265957276
1.289569776
1.289864279
1.289792683
1.289977836
1.289934916
1.289695106
1.289682517
1.289903293
1.290063507
1.289951478
1.289745078
1.289840062
1.290126957
1.290095037
1.289788526
1.289685092
1.289816029
1.28997691
1.308005366
1.270566737
1.289705771
1.289889128
1.289713857
1.289673756
1.289728657
1.289794918
1.289803208
1.289816573
1.289980143
1.289996989
1.289779611
1.289766335
1.290056984
1.290088756
1.289775816
1.289594377
1.289730836
1.289971493
1.304922833
1.272753142
1.289878667
1.28980657
1.289659085
1.289517906
1.289594347
1.289827173
1.289959554
1.289894803
1.289877534
1.289889772
1.289809511
1.289767171
1.289923969
1.289983529
1.289770724
1.289580495
1.289677599
1.289937716
1.302594764
1.277916514
1.289975939
1.289736677
1.289694674
1.289638058
1.289645531
1.28977328
1.290020868
1.289990456
1.289786994
1.289749149
1.289838238
1.289823078
1.289781236
1.289815694
1.289784027
1.289661879
1.289709959
1.289907765
1.299156766
1.27978992
1.289838814
1.289740643
1.289762044
1.289862333
1.289828282
1.289795662
1.289998579
1.289942669
1.289681428
1.289697515
1.289900161
1.289873917
1.289686994
1.28967934
1.289805921
1.28979207
1.289791685
1.289895119
1.296971314
1.28498151
1.289388078
1.289782636
1.289281501
1.289864923
1.289452351
1.289707256
1.289524936
1.289721389
1.289503726
1.289757785
1.289926813
1.289921997
1.289731261
1.289711998
1.289886749
1.289941289
1.28990577
1.289910173
1.293479224
1.303839859
1.257978095
1.291381561
1.247918741
1.279159758
1.246268822
1.273327522
1.254058015
1.276673244
1.267722285
1.28620056
1.283050422
1.297331003
1.296188182
1.305640619
1.303053884
1.306579702
1.300294097
1.299475832
1.292413764
1.235307719
1.288900369
1.289864956
1.290033066
1.290113139
1.290056877
1.289932825
1.289926959
1.289925716
1.289902862
1.289807469
1.289683794
1.2896987
1.289793508
1.289636913
1.289308547
1.289381399
1.289607526
1.289972742
1.327517202
1.235073878
1.288991084
1.289830836
1.29000575
1.290095027
1.289918892
1.289871006
1.290057668
1.290081702
1.289904287
1.289803088
1.289786545
1.289799708
1.289729767
1.289579902
1.289503889
1.289546122
1.289663671
1.289941914
1.328182057
1.234601039
1.289075835
1.289847948
1.290013858
1.290050738
1.289786658
1.289780872
1.290110135
1.290177071
1.289899799
1.289764145
1.289822984
1.289848387
1.289681797
1.289554269
1.289645893
1.289647265
1.289660049
1.289872972
1.329595055
1.233986192
1.289116686
1.289972324
1.290054917
1.28996615
1.289768063
1.28977115
1.290042643
1.290116852
1.289871362
1.289754693
1.289822802
1.289838845
1.289681053
1.28962284
1.289703898
1.289645845
1.289604038
1.289824923
1.331383656
1.233381328
1.289053733
1.290080262
1.290045348
1.289860783
1.289798777
1.2898473
1.290006036
1.290008163
1.289820845
1.289794616
1.289857005
1.289845302
1.289705272
1.289679138
1.289708713
1.289626931
1.28958245
1.28980708
1.33350486
1.232967099
1.288885561
1.290053979
1.289946451
1.289746284
1.289839666
1.289986292
1.290071097
1.289932252
1.289764717
1.290274659
1.289969743
1.289930514
1.289748783
1.289675813
1.289686365
1.289644666
1.289622185
1.28980801
1.335267251
1.233088218
1.288643083
1.289925603
1.289767955
1.289665585
1.289866583
1.290147498
1.290187022
1.289870544
1.289850089
1.301320176
1.290247934
1.290091859
1.289783044
1.289612326
1.28966899
1.289711134
1.28969435
1.289789435
1.336607526
1.233652507
1.288540934
1.289758473
1.289643678
1.289658112
1.289856705
1.290175496
1.290242239
1.289853425
1.289635725
1.306937954
1.290474227
1.290245321
1.289810715
1.289541637
1.289676991
1.289796051
1.289754013
1.289740598
1.337071977
1.235625167
1.288835211
1.289676563
1.289665772
1.289736282
1.289816194
1.290012031
1.290142699
1.289930272
1.289550531
1.290186526
1.290172875
1.29030993
1.289871731
1.289528555
1.289665901
1.289827288
1.289781341
1.289712373
1.33653518
1.237874935
1.289300182
1.289711099
1.289777165
1.289870806
1.289820857
1.289739474
1.289915661
1.290100201
1.289879818
1.289658234
1.290004804
1.290276872
1.289974926
1.289614537
1.289629883
1.289780915
1.289778525
1.289720857
1.335159515
1.241668937
1.289484541
1.289700882
1.289870443
1.290032378
1.289920015
1.289552264
1.289671389
1.290203607
1.290155246
1.289727151
1.289825919
1.290126956
1.290076233
1.289777758
1.289595219
1.289688906
1.289773524
1.289783809
1.332485512
1.244646749
1.289252839
1.289636269
1.289898881
1.29012593
1.290044642
1.289571718
1.289547095
1.290140784
1.290276021
1.289851674
1.289643762
1.289853943
1.290092861
1.289969388
1.289644248
1.289628799
1.289751886
1.289830099
1.329372468
1.249738362
1.288913961
1.289652173
1.289935179
1.290075755
1.290014833
1.289748107
1.28960027
1.289901501
1.290229616
1.290054592
1.289575902
1.289512107
1.289986195
1.290130421
1.289791479
1.289639827
1.289713835
1.289822758
1.324783003
1.253440214
1.288861311
1.289737459
1.290023151
1.289903225
1.289762707
1.289880278
1.289779554
1.289654744
1.290067085
1.290263207
1.289665479
1.28929527
1.289797086
1.290190501
1.289983366
1.289714174
1.289649183
1.289729128
1.320601347
1.260097214
1.28928643
1.289856884
1.290090856
1.289728486
1.289458321
1.289845463
1.289945585
1.28963914
1.289914887
1.290302724
1.289864075
1.289364161
1.28962048
1.29008473
1.29011693
1.289810795
1.289581392
1.289616604
1.314936686
1.264283033
1.289869781
1.289995815
1.290044135
1.289735137
1.289485804
1.289706647
1.289997165
1.289882473
1.289884242
1.290071308
1.289992851
1.289639521
1.289579679
1.289866629
1.290082861
1.289871663
1.289590343
1.289577796
1.310907526
1.271595218
1.290171207
1.290018965
1.289867285
1.289889136
1.28979248
1.289634344
1.289944567
1.290119289
1.289876376
1.289760818
1.289985896
1.289953186
1.289649825
1.289590789
1.289876805
1.289870459
1.289672772
1.289666233
1.305027141
1.275092959
1.289972035
1.289880471
1.289632701
1.289921339
1.290021337
1.289766738
1.289907633
1.290062448
1.289790998
1.289501688
1.289854185
1.290151432
1.289741096
1.289374963
1.289617189
1.289834012
1.289784521
1.289814145
1.301589747
1.282368993
1.289221974
1.2896939
1.2885692
1.289505875
1.289075294
1.289565359
1.289135793
1.289555191
1.289420072
1.289423042
1.289678112
1.290186509
1.289955523
1.289523303
1.289635429
1.289838172
1.289897708
1.289898326
1.295716768
1.303582497
1.249928726
1.284492486
1.234290876
1.265188289
1.230572083
1.255936922
1.241144745
1.263491138
1.260573188
1.280978507
1.282118905
1.300647949
1.30056857
1.316426716
1.309399549
1.320154219
1.303299776
1.309762874
1.290149998
1.220024279
1.288478259
1.289836233
1.290058965
1.289975143
1.289900788
1.289981109
1.289891629
1.289805573
1.28985957
1.289723634
1.289545842
1.289604729
1.289716464
1.289618981
1.289267334
1.289197083
1.289440099
1.289882037
1.347517314
1.219241266
1.288419629
1.289812564
1.290067255
1.290144673
1.289915245
1.289821508
1.289976918
1.29000796
1.289921
1.289799226
1.289652797
1.289646142
1.289640086
1.28951237
1.289441814
1.289514524
1.289618914
1.289880621
1.348695663
1.218240967
1.288284618
1.289837073
1.290103874
1.290214311
1.289892672
1.289668515
1.28996386
1.29011058