/*--------------------------------*- C++ -*----------------------------------*\
| =========                 |                                                 |
| \\      /  F ield         | OpenFOAM: The Open Source CFD Toolbox           |
|  \\    /   O peration     | Version:  5.x                                   |
|   \\  /    A nd           | Web:      www.OpenFOAM.org                      |
|    \\/     M anipulation  |                                                 |
\*---------------------------------------------------------------------------*/
FoamFile
{
    version     2.0;
    format      ascii;
    class       volScalarField;
    location    "5.2";
    object      T;
}
// * * * * * * * * * * * * * * * * * * * * * * * * * * * * * * * * * * * * * //

dimensions      [0 0 0 1 0 0 0];

internalField   nonuniform List<scalar> 
30538
(
276.3521622
273.0424896
273.0068522
273.0064111
273.0114151
273.0041013
273.0069547
273.0062507
273.0148155
273.0189664
273.0114601
273.0034595
272.9995095
273.0017452
273.0012491
272.9975533
272.9912153
272.9876452
272.9789546
272.0106145
276.3396699
273.0348366
273.003855
273.0046256
273.0082081
273.0019571
273.0036572
273.0016036
273.0084479
273.0138763
273.0090888
273.0014149
272.9955751
272.9965815
272.9970815
272.995196
272.989498
272.9856791
272.9765548
272.0177392
276.2969775
273.0285537
273.0032832
273.0060184
273.0074991
273.0023352
273.0039452
273.0007144
273.0046469
273.0113722
273.0109998
273.0041481
272.995629
272.9949312
272.9972137
272.9980255
272.9929892
272.9879057
272.9783573
272.0120018
276.2710697
273.0231033
273.0014441
273.0050828
273.0050187
272.9997498
273.0028611
273.0002996
273.0014651
273.0081155
273.0119029
273.006277
272.9963301
272.9945376
272.9986311
273.001989
272.997376
272.9903742
272.979888
272.0350198
276.1872404
273.0206025
272.9982335
273.0018015
273.0009283
272.9948166
272.9998697
272.999834
272.9997207
273.0046167
273.009851
273.0062351
272.9976009
272.9962234
273.0012391
273.0059091
273.0016915
272.9934913
272.9815984
272.0198778
276.1471205
273.0228012
272.9941088
272.996649
272.9963748
272.9893285
272.9950569
272.9986404
272.9997152
273.0012186
273.0045089
273.0037744
272.9998957
273.0001907
273.004288
273.0084775
273.0052229
272.9977538
272.9849943
272.055794
276.0195971
273.0263631
272.9895369
272.9904122
272.9925938
272.9855085
272.9893662
272.996452
273.0005251
272.9980336
272.9973523
272.9997912
273.0037938
273.0063131
273.0072449
273.0095889
273.0076803
273.0030779
272.9905575
272.0453392
275.9522951
273.0284109
272.9859324
272.9849594
272.99035
272.9852212
272.9851971
272.9930398
273.0005878
272.9953449
272.9913072
272.9970767
273.0090336
273.0134253
273.0104011
273.0098525
273.0093161
273.0085908
272.9974372
272.0966435
275.7586641
273.02455
272.9852546
272.9817875
272.9893023
272.9881472
272.983879
272.9890671
272.9981439
272.9939262
272.9897574
272.9969466
273.0137673
273.0195534
273.0139177
273.0106393
273.0106739
273.0130777
273.0036004
272.1044215
275.6483243
273.0176815
272.9879626
272.9820929
272.9885938
272.9916331
272.9853824
272.9849698
272.9931109
272.9935369
272.9935124
272.9996242
273.0160567
273.0229424
273.0181322
273.0139009
273.0130269
273.0156063
273.0066289
272.1706007
275.3968221
273.0106352
272.9920644
272.9842503
272.9858331
272.9914497
272.9877975
272.9823986
272.9874708
272.9942874
273.0006317
273.0038323
273.015336
273.0228229
273.0223331
273.0201491
273.0172012
273.0161658
273.0059403
272.1988274
275.2683983
273.0068164
272.9952888
272.9873158
272.9817537
272.9875644
272.989127
272.9816913
272.9842148
272.9949604
273.0077693
273.0077658
273.0128856
273.0195567
273.0260518
273.0279771
273.0227847
273.0156876
273.0024676
272.2694097
274.9747717
273.0040042
272.9956665
272.9907023
272.9788606
272.9829233
272.9894182
272.9834723
272.9841894
272.9956903
273.0118376
273.0114345
273.0113679
273.015675
273.0276268
273.0350625
273.0285036
273.0156973
272.9988683
272.3230628
274.8295518
273.003054
272.9952432
272.9940674
272.9810532
272.9821667
272.9901037
272.9868541
272.9867476
272.9965878
273.0130517
273.0147586
273.0126393
273.0139391
273.0272041
273.0386091
273.0328318
273.0166907
272.9975101
272.4025466
274.4938363
273.0013964
272.9956327
272.9978094
272.9877075
272.986058
272.9916135
272.9905091
272.99044
272.9985367
273.013019
273.0166264
273.0151247
273.0151142
273.0261772
273.0375952
273.0330722
273.0174545
272.9990444
272.4898356
274.3354106
273.002264
272.9969861
272.998591
272.993375
272.9905626
272.9931175
272.9932042
272.9944038
273.0016054
273.0122761
273.0148798
273.0163763
273.0180236
273.0262794
273.0332482
273.0284091
273.015918
273.0014994
272.576846
273.9699698
273.0043026
272.9975648
272.9964493
272.99422
272.9927192
272.9939763
272.9946703
272.9983965
273.0056659
273.0099833
273.0098848
273.0144329
273.0207518
273.0268157
273.0270139
273.0202314
273.0117432
273.003298
272.6912994
273.807447
273.0075314
272.9969726
272.9937007
272.9930384
272.9929119
272.9938095
272.9956437
273.0014525
273.0086006
273.0064049
273.0036813
273.0101007
273.0200962
273.0252172
273.02007
273.0116239
273.0063695
273.0034001
272.772329
273.4089019
273.0238245
272.9990163
273.02297
272.9992422
273.0281234
273.0036345
273.0251718
273.0090446
273.0242386
273.0052031
273.0059452
273.0043327
273.0172356
273.0137493
273.0122427
272.9988089
273.0016617
272.9995441
272.8930318
271.1828417
276.3547025
272.1592902
277.1326959
273.1190717
277.3314457
273.6609851
276.9189912
273.6879103
276.0512095
273.234352
274.9307535
272.5718713
273.9700527
272.0688022
273.3767166
271.8783997
273.2757512
272.0956476
273.5550446
276.9626634
273.0470947
273.0116261
273.008693
273.0075013
273.0083808
273.0112268
273.0056392
273.011091
273.0170674
273.013157
273.0061731
272.9996384
272.9986282
272.9967408
272.9932417
272.9909622
272.9905919
272.9788501
271.7885817
276.9504315
273.0402036
273.0064095
273.0049902
273.0045608
273.0064614
273.0091726
273.0020494
273.0047078
273.0108354
273.0093914
273.0040718
272.9968295
272.9941651
272.9918554
272.9900177
272.9887507
272.9880525
272.9758922
271.7875089
276.91448
273.0346474
273.0030794
273.0034691
273.004124
273.0059443
273.0099348
273.0025043
273.0014858
273.0069937
273.009152
273.0068069
272.9988749
272.9937172
272.991385
272.9918992
272.9918635
272.989833
272.9766582
271.7756127
276.8864597
273.0300834
272.9985463
273.0006091
273.002434
273.0023806
273.0076642
273.0023556
272.9998009
273.0037493
273.0084999
273.00915
273.0015063
272.9944885
272.9924618
272.9955494
272.9962625
272.9922009
272.9775549
271.777931
276.8122114
273.0280353
272.9944478
272.9976125
272.99975
272.9966859
273.0020416
273.000732
272.9994916
273.002063
273.0067242
273.0092044
273.0034277
272.9970105
272.995586
273.0000334
273.0005015
272.994644
272.9789187
271.7582575
276.7625887
273.0294365
272.9923081
272.9951745
272.9970907
272.9914866
272.9944882
272.9969932
273.0002756
273.0022027
273.0039697
273.0062784
273.0043995
273.0014242
273.0007892
273.0040148
273.003156
272.997197
272.9820229
271.77077
276.6375002
273.0323392
272.9921565
272.9933323
272.9950721
272.9886653
272.9873076
272.9922558
273.0014431
273.0036016
273.0008866
273.0010173
273.0047482
273.007459
273.007398
273.0070644
273.0040231
273.0000024
272.9869719
271.7642395
276.5464531
273.0333482
272.9923904
272.9911712
272.993173
272.9883309
272.9836664
272.9882988
273.0017081
273.0046455
272.9984967
272.9965733
273.0057725
273.0143708
273.014458
273.0096271
273.0041116
273.0028704
272.9933246
271.7990839
276.3399564
273.0278814
272.9919268
272.9882363
272.9901103
272.9887834
272.9843982
272.9870161
272.9986556
273.0032926
272.9984595
272.9957404
273.0072951
273.0200093
273.0207677
273.0126735
273.0048944
273.0055127
272.9988834
271.820194
276.1900114
273.0189949
272.9908823
272.9857215
272.9863751
272.9884034
272.9884909
272.9881906
272.9928347
272.9991275
273.0009631
272.9991895
273.0092694
273.0222922
273.0248733
273.0168556
273.0078402
273.0078053
273.0017011
271.879599
275.9142222
273.0124748
272.9917284
272.9851863
272.9828823
272.9865325
272.9919349
272.9900731
272.9876775
272.9946506
273.004816
273.005861
273.011671
273.0210134
273.0257592
273.0214005
273.0129664
273.0100974
273.001944
271.9342602
275.741416
273.012146
272.994944
272.987008
272.9812394
272.9845462
272.9922802
272.9913612
272.9867022
272.9918653
273.0071817
273.0126
273.0149271
273.0177308
273.0233796
273.0247044
273.0189473
273.0130885
273.0012022
272.0129028
275.4153652
273.0144835
272.997009
272.9895316
272.9823008
272.9843602
272.9910823
272.9923418
272.9897846
272.991928
273.0063204
273.0170652
273.0189946
273.0154073
273.0187157
273.0247069
273.0239011
273.01719
273.0020921
272.1077762
275.2133979
273.0145245
272.9974536
272.9910157
272.9861355
272.9881446
272.9913471
272.9932535
272.9946518
272.9937755
273.0032441
273.0179801
273.0234113
273.0157806
273.0140682
273.0221238
273.0270537
273.0219523
273.0049916
272.2037213
274.8221085
273.008712
272.9962986
272.992048
272.9907456
272.9939521
272.9942175
272.9941145
272.997146
272.9966221
273.0018155
273.0157541
273.0248983
273.017883
273.0128059
273.019234
273.0269607
273.0244498
273.0081338
272.3339954
274.5915364
273.0017444
272.9952919
272.9930824
272.9924718
272.9965596
272.9974168
272.9942654
272.9965106
272.9996227
273.0034908
273.0120953
273.0210633
273.0188821
273.0152898
273.0183302
273.0239515
273.0217122
273.0079612
272.4337549
274.1625885
272.9976243
272.9959436
272.9951965
272.9914467
272.9952326
272.9983307
272.9935206
272.9950771
273.003283
273.0071745
273.0083812
273.0130495
273.0172722
273.0191986
273.0192041
273.019039
273.014645
273.0036216
272.5850051
273.939046
272.9989239
272.9989652
272.9984837
272.9914325
272.9936161
272.9970149
272.9928803
272.9954238
273.0063232
273.0098207
273.0051801
273.0047696
273.0127126
273.020283
273.0187274
273.0135383
273.0065686
272.9985032
272.6778367
273.4831512
273.0189086
273.004238
273.0353551
273.0032766
273.0336315
273.007737
273.0261626
273.0053784
273.0244235
273.0112035
273.0099812
272.9980532
273.0084236
273.0082709
273.012708
272.9999637
273.0005076
272.9931914
272.8415755
271.2055605
276.578103
272.4164995
277.5618956
273.5770679
277.8265194
274.1978012
277.3545175
274.1054703
276.3394219
273.4453194
275.056754
272.5253255
273.9434562
271.8326912
273.3248614
271.5810562
273.2825411
271.8292333
273.6473801
277.5497902
273.0513119
273.0191041
273.0143853
273.0064317
273.0136028
273.0187944
273.009821
273.0096839
273.0135518
273.0161645
273.0136014
273.0036224
272.995592
272.9908046
272.9892436
272.9925676
272.9960532
272.9806094
271.0584148
277.5469279
273.0479071
273.0121689
273.006862
273.0024186
273.0112286
273.0170992
273.0072174
273.0041288
273.0067324
273.0102048
273.0101266
273.0015242
272.9923148
272.9855364
272.9838346
272.988409
272.9929473
272.9779631
271.0583065
277.5115796
273.0480157
273.0059736
273.0010833
273.0016119
273.0099609
273.0170902
273.0084792
273.0034391
273.0032198
273.0065753
273.010506
273.0050098
272.9945525
272.9852816
272.9839232
272.9899422
272.9942727
272.9787774
271.0155722
277.5067784
273.0482042
272.9986155
272.9959574
273.000781
273.0067632
273.0127557
273.0078867
273.0041731
273.0013041
273.0035619
273.0114707
273.0095097
272.9981228
272.9874262
272.9870549
272.9935213
272.9962506
272.9792472
271.0220652
277.4182647
273.0451895
272.9937594
272.9933896
272.999667
273.0025744
273.0049716
273.003488
273.0045322
273.0027566
273.0031441
273.0107194
273.0111167
273.0018082
272.992285
272.992672
272.9971419
272.9971229
272.978754
270.951091
277.3806399
273.0399533
272.993244
272.9944263
272.9989519
272.9997977
272.9967172
272.9959586
273.0036271
273.0070845
273.0060667
273.0084713
273.0092029
273.005026
272.9998654
272.9994846
272.9994522
272.9966839
272.9789459
270.9773221
277.2147543
273.0337311
272.9977938
272.9988119
272.9983981
272.9991144
272.9909433
272.9882147
273.0016907
273.0126377
273.0107215
273.0054288
273.0046672
273.0079469
273.0091862
273.0065319
273.0003041
272.9959844
272.9808992
270.9251069
277.1341369
273.0297476
273.0034752
273.0022421
272.9962334
272.9975888
272.9904429
272.9851823
272.99952
273.0165858
273.0152815
273.0021689
272.9999532
273.0109841
273.0185349
273.0131347
273.0013614
272.9962836
272.985169
270.9927246
276.8780036
273.0245312
273.0031832
273.0006777
272.9909273
272.9920211
272.993845
272.9894235
272.9960681
273.0141053
273.0163789
273.0023988
272.9989741
273.0134788
273.0246756
273.0183727
273.003987
272.9981687
272.9903059
271.000507
276.7496997
273.0204609
272.9969183
272.9949716
272.9842847
272.9840593
272.9988503
272.9988233
272.9937405
273.0052245
273.0136381
273.0065302
273.0036317
273.0150611
273.0260352
273.0212892
273.0080123
273.001586
272.9941456
271.1173379
276.409961
273.0186459
272.99205
272.9911238
272.9824913
272.979779
272.9996807
273.0061462
272.9939187
272.9960439
273.0085672
273.0131869
273.012611
273.015949
273.0229674
273.021747
273.0124557
273.0061458
272.9973111
271.1956112
276.2567571
273.0236892
272.9934585
272.9910908
272.987651
272.9821779
272.9960546
273.0079516
272.9975837
272.9918938
273.0031834
273.0189724
273.0226163
273.0178095
273.0180301
273.019278
273.0157671
273.0111421
272.9995416
271.3477832
275.8385211
273.0290177
272.9987569
272.9916479
272.9949712
272.9905222
272.9909812
273.004684
273.0044266
272.9942522
272.998262
273.0205286
273.0300602
273.0208837
273.0135651
273.0139397
273.0168356
273.016452
273.0036964
271.4993045
275.643775
273.0292623
273.0021052
272.9898175
272.9982734
272.9995541
272.9906389
273.0005185
273.0105975
272.9991536
272.9950781
273.017257
273.0327463
273.0236192
273.0106702
273.0080142
273.0160918
273.0215408
273.0093978
271.6793715
275.1304832
273.0191975
273.0003624
272.9864543
272.995891
273.0044736
272.9958168
272.9988653
273.0101184
273.0016347
272.9948526
273.012432
273.0295817
273.0237878
273.0094935
273.0044295
273.0154105
273.0255202
273.0152324
271.88732
274.8991495
273.0063246
272.9964512
272.9873348
272.9909846
273.0020442
273.0024343
272.9985662
273.0035263
273.0009713
272.9980521
273.0094504
273.0219835
273.01977
273.0094135
273.0047102
273.0157057
273.0253563
273.0162744
272.0671613
274.337894
272.9964717
272.9962867
272.9946378
272.9879224
272.9969201
273.0044642
272.9969586
272.995476
273.0001073
273.0046746
273.009355
273.011997
273.0122733
273.0098171
273.0085098
273.0161044
273.0203798
273.0108071
272.3026803
274.1199123
272.9947719
273.0019913
273.0047756
272.9909375
272.9955398
273.0027252
272.994457
272.9915822
273.0014652
273.0113962
273.0103014
273.0034221
273.0044124
273.0093108
273.0115688
273.0147088
273.0127574
273.0029496
272.4682397
273.5296098
273.0212057
273.0097225
273.0558641
273.0082119
273.0486482
273.0110559
273.0312908
273.0008249
273.02181
273.014679
273.0150948
272.9962037
272.9974032
272.9978516
273.0033477
273.0015608
273.0021347
272.9954051
272.7188715
270.7754796
277.3223571
272.1977436
278.4888183
273.5484959
278.6853015
274.253222
277.9064414
274.0994226
276.488032
273.3203293
274.8075685
272.2597516
273.3369011
271.4935556
272.562521
271.3696931
272.6267029
271.8800709
273.2060644
279.5374575
273.0790326
273.0245586
273.0193213
273.0106161
273.0202737
273.0259016
273.023552
273.0151137
273.0071793
273.0145708
273.0216419
273.0103302
272.9906825
272.980514
272.9853676
272.9949875
273.0013519
272.9781905
270.0173742
279.5518288
273.0831813
273.0164289
273.0082163
273.0033832
273.0135142
273.0222854
273.020106
273.0109382
273.0028747
273.0087921
273.0156386
273.007313
272.9911721
272.9816118
272.9821665
272.9882005
272.9938096
272.9722593
269.9841132
279.5628647
273.0945953
273.0098019
272.9994774
273.000654
273.0102286
273.0190688
273.0184984
273.0126767
273.0043056
273.0052619
273.0114118
273.0089488
272.9980806
272.9872653
272.9823736
272.9857603
272.9921825
272.9730139
269.9186147
279.5806005
273.1011744
273.00284
272.993078
272.9992817
273.0095566
273.0129834
273.0139323
273.015359
273.0080758
273.0019938
273.0067659
273.0113515
273.005306
272.9922324
272.9820113
272.9848279
272.9936483
272.9767459
269.8513756
279.5341689
273.0939127
272.9986855
272.9912981
272.998534
273.0102685
273.0066645
273.005614
273.0140805
273.0124503
273.003667
273.0047229
273.0115634
273.0093793
272.9964514
272.9837279
272.9863194
272.9963688
272.9804616
269.7572925
279.4667416
273.0738988
272.999292
272.9944861
272.9983199
273.0129823
273.0036338
272.996018
273.0074514
273.0155213
273.0118373
273.0076607
273.0094891
273.008923
273.0006821
272.9898848
272.9904578
272.9979266
272.9817986
269.6915713
279.2938637
273.0484018
273.0058752
273.0033416
272.9991305
273.0157871
273.0052438
272.9885374
272.9969939
273.0170444
273.0237581
273.0136253
273.0043475
273.005109
273.0061258
273.0007286
272.99684
272.9969217
272.9795264
269.6325517
279.1418297
273.0325043
273.0139589
273.0125783
272.9979073
273.0113958
273.0096633
272.9894041
272.9887267
273.0170108
273.0353495
273.0189549
272.9980911
273.0001431
273.0125873
273.0138155
273.0044391
272.9945295
272.9759124
269.6265265
278.8596745
273.0305837
273.0119829
273.0136978
272.9927735
272.9973716
273.0116758
272.9982136
272.9882926
273.0131227
273.0353998
273.0213182
272.9962399
272.9965484
273.0161058
273.0244781
273.0125887
272.993912
272.9728463
269.6713837
278.6371339
273.0407531
273.0002774
273.0056532
272.9865636
272.9813568
273.0090537
273.0115516
272.996362
273.0051729
273.0243378
273.0215555
273.0021843
272.9969274
273.0148632
273.0281794
273.0189004
272.9971556
272.9738043
269.7759211
278.2238871
273.0496769
272.9895382
272.9995471
272.990693
272.9764193
273.0015869
273.0200544
273.0078382
272.9987607
273.0074644
273.0209735
273.0143663
273.0032372
273.0105571
273.024258
273.0215542
273.0037211
272.9799215
269.9656953
277.9090798
273.0554174
272.9890751
272.997772
273.0047017
272.9863457
272.9930538
273.0181765
273.0178376
272.9983414
272.9936098
273.0186871
273.0280262
273.0146535
273.0086172
273.0148393
273.0183635
273.0104158
272.9911064
270.1797042
277.3353814
273.0547031
273.0003015
272.9972162
273.0157705
273.0031451
272.9866
273.0074512
273.0241187
273.0064749
272.9896055
273.0123627
273.0353644
273.0279497
273.0120671
273.0040445
273.0091711
273.0143422
273.0035632
270.494023
276.9324486
273.0490263
273.0097254
272.9920795
273.011641
273.0122646
272.9875073
272.997107
273.0227911
273.0160306
272.9936794
273.0034116
273.031233
273.0375406
273.018535
272.9965675
272.9980768
273.0140069
273.0136097
270.7684727
276.2337378
273.0359984
273.0075444
272.9821139
272.9956845
273.0087492
272.995304
272.9968376
273.0163539
273.0171829
272.999991
272.9975838
273.0183829
273.0356516
273.0227549
272.9951374
272.9909922
273.0110181
273.018295
271.1562392
275.805342
273.0220087
272.9968971
272.9802903
272.9832088
272.9992823
273.0052189
273.0044216
273.0087118
273.008682
273.0035196
272.9997948
273.0076971
273.0222705
273.0194247
272.9990492
272.9931556
273.0096091
273.0175332
271.4295502
275.0416416
273.0095243
272.9925896
272.9909769
272.9841417
272.9927743
273.0072377
273.0104451
273.0027974
272.99659
273.004887
273.0098896
273.0036104
273.0034844
273.0083692
273.0053946
273.0036936
273.0123483
273.0142978
271.8565788
274.6284334
273.0008528
272.9992807
273.0068097
272.9972625
272.9974127
273.0054382
273.0098305
272.9987988
272.9887922
273.0067559
273.0204253
273.0040903
272.9894311
272.9969782
273.0095157
273.0153107
273.0155271
273.0107383
272.1108549
273.8109152
273.0292786
273.0151058
273.0819847
273.0319381
273.083753
273.0277744
273.061789
273.0131733
273.014559
273.0105184
273.0306961
273.0025638
272.9822499
272.9787219
272.9965831
273.004442
273.0102465
273.0046365
272.5554082
270.8507977
278.1440157
273.0049767
279.9415603
275.0925849
280.3854147
276.0913996
279.3881569
275.5513791
277.370634
273.9425593
275.1050041
272.0413415
273.0993861
270.5508397
272.1743498
270.1991576
272.5203463
270.9559829
273.5289537
281.1451752
273.1103996
273.0220757
273.0225317
273.0232772
273.0269278
273.025087
273.0367224
273.0272098
273.0042141
273.0080342
273.0210218
273.0124787
272.9888
272.9757861
272.9821047
272.9953619
273.0052505
272.9714891
268.0623894
281.1899937
273.1175154
273.0127749
273.0117725
273.013645
273.0136402
273.0192734
273.0309319
273.0229225
273.005761
273.0063352
273.0141033
273.0093137
272.994381
272.9837082
272.9825114
272.9865131
272.9926327
272.9608182
268.0134546
281.2244668
273.1333144
273.0091871
273.0059462
273.0085634
273.0066406
273.0138701
273.0249557
273.0238673
273.0131218
273.0072261
273.0075376
273.0077511
273.0036705
272.9948646
272.9845202
272.9808014
272.9864576
272.9604635
267.8531266
281.3136693
273.1432045
273.0095134
273.002904
273.0043729
273.0072118
273.0089072
273.0156987
273.0236725
273.0204293
273.0066314
272.9981035
273.0043115
273.0089131
273.0003711
272.9821671
272.9769512
272.986883
272.9671977
267.7636129
281.2640535
273.1321476
273.0115512
273.0020294
273.0002659
273.0128521
273.0078014
273.0079072
273.0200076
273.0219737
273.0093503
272.9988818
273.0043947
273.0085755
272.999502
272.9810109
272.9789664
272.9920529
272.9761588
267.5332185
281.2469254
273.1048383
273.0127836
273.0023708
272.9963693
273.0203837
273.014345
273.0053733
273.0105843
273.0155651
273.0166725
273.0132931
273.008712
273.0038892
272.9959179
272.9848342
272.9864573
272.9981112
272.9816221
267.468112
281.0163345
273.066539
273.0139472
273.0050638
272.9949618
273.024796
273.0265511
273.0069443
272.9963417
273.0062133
272.999776
273.0312377
273.0116551
272.9964059
272.9933924
272.9942507
272.9974425
273.0005006
272.9802165
267.2906389
280.8994009
273.0457887
273.0156338
273.0109035
272.9954262
273.0188346
273.033649
273.0108405
272.9850379
272.9990305
273.0172116
273.0441033
273.0107996
272.9890746
272.9937394
273.0064775
273.0080665
272.998594
272.9732661
267.3312419
280.5325536
273.0514927
273.0108731
273.0137061
272.9956787
273.0043261
273.026933
273.0152807
272.9902867
272.9995041
273.0330177
273.0428076
273.0113385
272.9880371
272.9958137
273.0147049
273.0145211
272.9957635
272.9678125
267.3449482
280.3497182
273.0809485
273.0005577
273.0096046
272.9979214
272.9910713
273.0095571
273.0179352
273.0103131
273.0076133
273.0190901
273.0302714
273.0145783
272.9955152
272.999967
273.0163102
273.0156118
272.9952423
272.9675722
267.5678324
279.769972
273.0900238
272.9876369
273.0063052
273.0101506
272.991646
272.9922723
273.01353
273.0300359
273.0183483
273.0015697
273.013422
273.0178261
273.0074084
273.0047058
273.0122889
273.0132501
272.9992242
272.974944
267.8449947
279.4191023
273.0827004
272.9841787
273.0044966
273.0262478
273.0045714
272.9834299
273.0046126
273.0380424
273.0273044
272.9947416
273.0004727
273.0174154
273.0183085
273.0117521
273.0070514
273.0093371
273.0054561
272.9873292
268.2408316
278.5565097
273.0564102
272.9967107
273.0046964
273.0327961
273.01929
272.9860941
272.9953445
273.0300712
273.0302778
273.0024087
272.9949534
273.0109776
273.0260141
273.0206018
273.0042881
273.0040224
273.0087036
272.9989278
268.7461683
278.1098686
273.0433392
273.0100724
273.0037312
273.0195276
273.016263
272.9959793
272.9951988
273.0139891
273.0269605
273.0157323
272.9961762
273.0029871
273.0275898
273.0269269
273.0035291
272.9956096
273.0062435
273.0054095
269.226195
277.1137694
273.0367927
273.0121497
272.9967235
272.9927707
272.9976873
273.0036639
273.004791
273.0059707
273.0194125
273.0194935
272.9992858
272.9970877
273.022005
273.0266821
273.0026476
272.9881739
272.9993584
273.0065336
269.868812
276.6893571
273.0429337
273.0049522
272.9916728
272.9788435
272.9854537
273.0058313
273.01761
273.0122155
273.0102919
273.0103398
273.002248
272.997733
273.0111073
273.0178349
273.0020826
272.9869362
272.9949098
273.0055906
270.3499363
275.6109267
273.0365083
272.9986432
272.9943325
272.988715
272.9893409
273.0008061
273.0224909
273.0201106
273.0024448
272.9985128
273.0052872
273.0032316
272.9995383
273.0037018
273.0030638
272.993658
272.9975695
273.0055477
271.0593644
275.1763759
273.0189881
272.9985746
273.0011635
273.0078459
273.0063964
273.0027858
273.0212879
273.0159841
272.9935687
272.9943634
273.0111806
273.008349
272.9921885
272.9924121
273.0048019
273.0044733
273.0042203
273.0071554
271.5098195
273.9892019
273.0544069
273.0108644
273.1134614
273.0419503
273.1427484
273.0400538
273.0924122
273.0208095
273.0201612
273.003625
273.0191611
273.0022009
272.9780116
272.9714466
272.9849426
272.9952587
272.9995748
273.004362
272.2355547
270.0209612
279.8835708
272.6758634
282.1746964
275.3005951
282.5567799
276.5330109
280.7773329
275.7982925
277.7414307
273.7664779
274.45648
271.4261082
271.6303406
269.6561235
270.2215484
269.5095043
270.807773
270.975328
272.4468089
284.9915336
273.2075678
273.0167412
273.028435
273.0363905
273.0327886
273.0226554
273.0227897
273.0234832
273.0220896
273.0126311
272.9996135
272.997606
273.0043204
272.9931589
272.9684015
272.9757722
272.9947291
272.9597287
265.248005
285.0787025
273.2098088
273.0087032
273.0210026
273.0295187
273.0157604
273.0122827
273.0291474
273.0319974
273.0171643
273.0072476
273.0030774
273.001128
272.9937425
272.9828686
272.9794842
272.9840984
272.9935608
272.9506587
265.0976004
285.2317215
273.2197965
273.0102953
273.0219163
273.0258641
273.0047504
273.0051247
273.0344763
273.0408198
273.0170492
273.0039103
273.0060489
273.0052791
272.9897769
272.9805167
272.991011
272.9918491
272.9925036
272.9496731
264.8052667
285.4064091
273.2268064
273.0211382
273.0258028
273.0189879
273.0035321
273.0048311
273.0295366
273.0362943
273.0150104
273.0031312
273.0058077
273.0042463
272.9895948
272.9859504
272.9951408
272.9905802
272.9867976
272.9533049
264.4538097
285.5382037
273.2230695
273.0307154
273.0253987
273.0104869
273.0066531
273.011984
273.0271853
273.0275551
273.0110252
273.0051497
273.0085404
273.0044104
272.9913569
272.990193
272.9945556
272.9876989
272.983991
272.9617141
264.0441902
285.578514
273.2085659
273.0287167
273.0173741
273.0013171
273.0106952
273.0245039
273.0332243
273.0214666
273.0053092
272.9201637
273.0181294
273.0113785
272.9947377
272.9893828
272.9916758
272.9880401
272.9864808
272.9734379
263.7063905
285.4650567
273.1838446
273.0179195
273.002526
272.9950121
273.013468
273.0386474
273.0433538
273.015908
272.9507901
270.6221626
273.0214056
273.0246193
272.9972394
272.9834478
272.9894374
272.9928581
272.9919616
272.982475
263.4417244
285.2975726
273.1675153
273.0038322
272.9923118
272.9949806
273.0130539
273.0412911
273.0479197
273.0141226
272.9410495
269.4205378
273.0002361
273.0368958
272.9991074
272.9770148
272.9897847
272.9997532
272.9967722
272.987702
263.336752
284.9069806
273.1761478
272.9968201
272.9945488
273.0020687
273.0098689
273.0273389
273.0392737
273.0205408
272.9866983
272.8867315
273.0334409
273.0419979
273.0040688
272.9758794
272.9889668
273.0025222
272.9991826
272.9911014
263.431142
284.5171406
273.1998991
272.999785
273.0043295
273.0137044
273.0102571
273.0038877
273.0196543
273.0346023
273.0144742
272.9913647
273.0188626
273.0389319
273.0128962
272.9835777
272.9864037
272.9990486
272.9992869
272.9958298
263.7042684
283.7021442
273.185407
272.9986664
273.0123148
273.0273337
273.0184169
272.9874518
272.9981909
273.0429474
273.0374177
272.9978607
273.0030245
273.0260469
273.0217769
272.998173
272.9842834
272.9919411
272.9992818
273.0002342
264.2478372
282.9554769
273.1395535
272.9927545
273.0144026
273.0347482
273.0284121
272.9885274
272.9869216
273.0369565
273.047007
273.00794
272.9870901
273.002724
273.0234549
273.0152127
272.98943
272.9876996
272.9978087
273.0031123
264.880266
281.6705922
273.0733125
272.993507
273.0169151
273.0295076
273.0248389
273.0027718
272.9906942
273.0159965
273.0424972
273.024934
272.9809858
272.9735717
273.0146449
273.0295314
273.0029337
272.989532
272.9948617
272.9982022
265.7968029
280.7794081
273.0435852
273.0002208
273.023805
273.0137395
273.0023087
273.0131282
273.0050339
272.9942699
273.0280567
273.0424229
272.9885303
272.9551423
272.9987085
273.0350552
273.0200499
272.9965626
272.9896251
272.9892226
266.6204585
279.3603806
273.0430872
273.0097341
273.0288621
272.9978854
272.9754802
273.00937
273.0184583
272.9921331
273.0145464
273.0454846
273.0055411
272.9613345
272.9839324
273.0263921
273.0318225
273.0052596
272.9842055
272.9770655
267.7513537
278.5520897
273.072606
273.0210062
273.0242101
272.997712
272.9772355
272.9968812
273.0223108
273.0123076
273.0115396
273.0256884
273.0169306
272.98557
272.9810297
273.0080409
273.0290217
273.0106841
272.9854008
272.9750791
268.5728624
277.0155434
273.0700344
273.0223802
273.0084938
273.0103627
273.0028696
272.9902614
273.0171334
273.032176
273.0106342
272.9994328
273.0170929
273.0135123
272.98805
272.9849365
273.0115239
273.0107195
272.9928592
272.9832993
269.8012255
276.2133656
273.0406398
273.0101378
272.9912843
273.0135285
273.0258773
273.0022978
273.0154737
273.027331
273.0036393
272.9776213
273.0067643
273.0315422
272.9968578
272.9669292
272.9892972
273.0076784
273.002631
272.9992861
270.5372764
274.5374205
273.089724
273.0154825
273.1658938
273.0635427
273.2485182
273.1079362
273.1497014
273.0539921
273.0482478
272.984125
273.0000397
273.011493
272.9808703
272.9431918
272.9535855
272.9893057
272.9945346
273.0069753
271.7746208
270.0538854
281.6775478
274.1245887
285.244514
278.3096652
286.1750331
280.3817186
283.6928657
278.6685299
279.3038848
274.8356599
274.6164371
270.758791
270.7515766
267.4276319
268.859524
266.7064414
270.1795078
268.8574613
272.9343151
288.5758919
273.3288631
273.0186345
273.0326193
273.0263295
273.0206255
273.0281532
273.0211661
273.0142975
273.0192815
273.0048298
272.9857912
272.9870238
272.996656
272.991764
272.9649151
272.9579664
272.9773845
272.9591774
261.3113655
288.7841746
273.3242712
273.0115731
273.0281933
273.0353712
273.0168169
273.0094852
273.0235348
273.0266144
273.0188814
273.0060803
272.9895113
272.9858324
272.9854611
272.9775751
272.9744755
272.9796653
272.9868783
272.9528442
261.0641103
289.0508838
273.3224159
273.0139379
273.0315116
273.0415941
273.0156531
272.997318
273.023425
273.0356019
273.0222175
273.0092219
272.9968309
272.987406