/*--------------------------------*- C++ -*----------------------------------*\
| =========                 |                                                 |
| \\      /  F ield         | OpenFOAM: The Open Source CFD Toolbox           |
|  \\    /   O peration     | Version:  5.x                                   |
|   \\  /    A nd           | Web:      www.OpenFOAM.org                      |
|    \\/     M anipulation  |                                                 |
\*---------------------------------------------------------------------------*/
FoamFile
{
    version     2.0;
    format      ascii;
    class       volScalarField;
    location    "1.2";
    object      p;
}
// * * * * * * * * * * * * * * * * * * * * * * * * * * * * * * * * * * * * * //

dimensions      [1 -1 -2 0 0 0 0];

internalField   nonuniform List<scalar> 
30538
(
101302.6445
101308.0837
101316.6442
101326.3368
101338.3705
101350.6339
101359.4901
101361.5747
101355.6148
101340.8986
101320.1203
101296.7325
101274.1029
101253.2202
101236.6962
101227.1035
101226.5448
101236.1092
101255.9404
101282.8382
101302.4146
101307.5993
101315.9156
101325.6134
101337.763
101350.1377
101358.9569
101360.8222
101354.637
101339.8732
101319.3185
101296.5078
101274.5359
101254.3367
101238.3411
101228.9309
101228.261
101237.486
101256.8274
101283.1463
101302.0031
101306.7554
101314.5895
101324.2337
101336.4915
101348.9762
101357.6724
101359.1617
101352.6213
101337.8823
101317.9013
101296.2452
101275.4893
101256.5295
101241.448
101232.2854
101231.3255
101239.8831
101258.333
101283.6569
101301.4949
101305.7082
101312.8446
101322.2635
101334.4552
101346.9058
101355.3024
101356.3299
101349.5121
101335.1169
101316.209
101296.247
101277.1426
101259.7601
101245.7097
101236.6511
101235.1307
101242.7144
101260.0243
101284.2047
101300.9832
101304.5579
101310.832
101319.7284
101331.5775
101343.6949
101351.5894
101352.1961
101345.364
101331.8248
101314.5964
101296.8325
101279.7309
101263.9813
101250.7396
101241.3778
101238.9575
101245.3251
101261.446
101284.6158
101300.5011
101303.3537
101308.6252
101316.6284
101327.777
101339.1878
101346.4467
101346.8293
101340.4195
101328.3226
101313.424
101298.2744
101283.3905
101269.0203
101256.0455
101245.8158
101242.1497
101247.2064
101262.2969
101284.7964
101300.0441
101302.0806
101306.2298
101313.0163
101323.1075
101333.4445
101339.9894
101340.455
101334.9989
101325.0154
101313.0608
101300.6273
101287.8749
101274.393
101261.0648
101249.4954
101244.2823
101248.075
101262.4222
101284.6859
101299.6533
101300.8188
101303.7941
101309.2652
101317.9144
101326.7589
101332.5364
101333.4019
101329.5227
101322.3167
101313.6157
101303.9033
101292.903
101279.7232
101265.4909
101252.2292
101245.2026
101247.8737
101261.8189
101284.3128
101299.4137
101299.8051
101301.7154
101305.7246
101312.5424
101319.6014
101324.5756
101326.1321
101324.4442
101320.4864
101315.1714
101307.8893
101298.0516
101284.5694
101269.0006
101253.8197
101245.0023
101246.8376
101260.7323
101283.7985
101299.4019
101299.2613
101300.2722
101302.7736
101307.463
101312.5926
101316.8343
101319.2208
101320.1385
101319.6694
101317.5421
101312.2194
101302.8815
101288.5431
101271.3547
101254.3301
101244.0309
101245.4097
101259.542
101283.3024
101299.8206
101299.654
101300.0746
101301.1294
101303.43
101306.4535
101309.9354
101313.242
101316.8052
101319.7608
101320.4049
101316.4537
101306.9968
101291.4048
101272.5854
101254.1585
101242.9122
101244.2054
101258.7038
101283.016
101300.7865
101301.4202
101301.7531
101301.3143
101301.1777
101301.7765
101304.2245
101308.3733
101314.4931
101320.4051
101323.2873
101320.1525
101310.1786
101293.3308
101273.1994
101254.0108
101242.4906
101243.9619
101258.7118
101283.1374
101302.25
101304.5031
101305.3281
101303.5974
101301.0186
101298.8898
101299.9305
101304.6722
101312.9038
101321.1455
101325.6668
101322.968
101312.4457
101294.6382
101273.731
101254.5084
101243.3955
101245.1673
101259.858
101283.7526
101303.9209
101308.4275
101310.1854
101307.6416
101302.6481
101297.7738
101297.1818
101302.0343
101311.5831
101321.4253
101327.0204
101324.5791
101313.7711
101295.5993
101274.7115
101256.2116
101246.0733
101248.159
101262.3438
101284.9214
101305.484
101312.3384
101315.2423
101312.2542
101305.2518
101298.1322
101295.8451
101300.1505
101310.0696
101320.7139
101326.8713
101324.6653
101314.0563
101296.3578
101276.4398
101259.4308
101250.6668
101252.9667
101266.1317
101286.6007
101306.5149
101315.0686
101318.8553
101315.8147
101307.6778
101299.263
101295.6345
101298.945
101308.152
101318.7266
101324.9261
101323.0703
101313.2798
101297.0282
101279.0706
101264.2651
101257.0739
101259.3957
101271.0182
101288.6739
101306.6275
101315.6441
101319.7834
101317.0443
101308.9489
101300.4633
101296.1934
101298.3887
101306.1885
101315.5528
101321.2565
101319.8418
101311.4778
101297.6311
101282.5635
101270.5562
101265.0228
101267.1471
101276.747
101291.0206
101305.6872
101313.6619
101317.393
101315.2526
101308.4527
101301.18
101297.1666
101298.3685
101304.2339
101311.5156
101316.1284
101315.1904
101308.801
101298.2174
101286.8456
101278.0107
101274.0996
101275.8051
101283.0012
101293.5059
101303.8485
101309.3827
101312.0486
101310.7094
101306.1928
101301.3257
101298.4816
101298.9526
101302.502
101307.0638
101310.0067
101309.462
101305.4783
101298.8419
101291.7732
101286.3851
101284.1063
101285.2343
101289.7126
101296.1089
101301.4151
101303.5492
101304.5909
101304.1019
101302.4274
101300.609
101299.4705
101299.5402
101300.7367
101302.3402
101303.403
101303.2562
101301.865
101299.5693
101297.1394
101295.3209
101294.5939
101295.0023
101296.5621
101298.7089
101304.3043
101311.9042
101320.5558
101328.9701
101338.761
101349.0361
101356.9342
101358.8168
101353.7193
101340.9027
101322.9983
101303.1103
101283.9026
101265.8115
101250.6638
101240.6803
101238.4289
101245.5047
101261.9747
101285.0917
101303.9859
101311.1824
101319.4179
101327.6613
101337.4206
101347.6688
101355.4808
101357.2616
101352.0484
101339.2653
101321.6387
101302.3141
101283.7013
101266.2578
101251.6604
101241.9576
101239.7015
101246.5535
101262.6739
101285.3518
101303.4198
101309.8867
101317.3642
101325.2637
101334.8731
101345.0061
101352.6019
101354.1601
101348.7736
101336.1545
101319.1464
101300.9474
101283.4866
101267.2552
101253.6313
101244.3687
101242.0449
101248.4267
101263.8838
101285.7876
101302.7279
101308.2472
101314.7358
101322.0959
101331.295
101341.1451
101348.3631
101349.5777
101344.053
101331.9035
101315.9917
101299.4553
101283.6383
101269.0228
101256.5512
101247.6642
101245.083
101250.7427
101265.3086
101286.2751
101302.0182
101306.5076
101311.881
101318.4722
101326.9637
101336.2811
101342.8875
101343.7512
101338.267
101326.9824
101312.7606
101298.3499
101284.5699
101271.706
101260.2627
101251.4394
101248.2797
101252.9944
101266.5925
101286.6803
101301.3659
101304.8294
101309.0423
101314.625
101322.2246
101330.6646
101336.5068
101337.1109
101331.9819
101322.0013
101310.0267
101298.1001
101286.5586
101275.2567
101264.4089
101255.1592
101251.0521
101254.7027
101267.4264
101286.89
101300.811
101303.2951
101306.3803
101310.8168
101317.3865
101324.6758
101329.6693
101330.1723
101325.7579
101317.671
101308.3256
101298.9703
101289.52
101279.2596
101268.4132
101258.2711
101252.9613
101255.5805
101267.6525
101286.8499
101300.425
101302.1023
101304.214
101307.5293
101312.8676
101318.8029
101322.8964
101323.4714
101320.2996
101314.557
101307.9758
101300.9408
101293.1135
101283.309
101271.9204
101260.5432
101253.8635
101255.5501
101267.2451
101286.5539
101300.2906
101301.4607
101302.8458
101305.0907
101308.9935
101313.4909
101316.8105
101317.6594
101316.1001
101312.9206
101308.9923
101303.8638
101297.0123
101287.0457
101274.6474
101261.7637
101253.7257
101254.7219
101266.3432
101286.0905
101300.442
101301.4863
101302.479
101303.7703
101306.1554
101309.1872
101311.8634
101313.1999
101313.4081
101312.722
101311.1675
101307.3938
101300.8323
101290.1028
101276.3679
101261.9605
101252.8068
101253.4419
101265.2663
101285.6103
101301.0351
101302.564
101303.5728
101304.0315
101304.8544
101306.2893
101308.2794
101310.1556
101312.1784
101313.7727
101314.0735
101311.0798
101304.1918
101292.2696
101277.1396
101261.5402
101251.7015
101252.307
101264.4687
101285.3073
101302.1181
101304.887
101306.4264
101306.1798
101305.3714
101304.9714
101306.0076
101308.3308
101312.0294
101315.5317
101317.1514
101314.4503
101306.8456
101293.6625
101277.4084
101261.193
101251.2251
101252.0448
101264.4456
101285.377
101303.5931
101308.2033
101310.6942
101309.9507
101307.5327
101305.005
101304.8563
101307.3749
101312.367
101317.3101
101319.7706
101317.0809
101308.7442
101294.6148
101277.7075
101261.5455
101252.0122
101253.1488
101265.4844
101285.91
101305.1687
101311.9836
101315.5994
101314.6276
101310.6305
101305.9904
101304.4834
101306.8404
101312.5545
101318.4324
101321.3734
101318.6533
101309.9033
101295.3937
101278.5016
101263.0357
101254.3757
101255.8383
101267.7056
101286.9357
101306.5306
101315.4288
101320.1305
101319.0121
101313.6296
101307.321
101304.4601
101306.2879
101312.1418
101318.4215
101321.5938
101318.9418
101310.2791
101296.1011
101280.0039
101265.855
101258.3766
101260.0887
101271.054
101288.4144
101307.2595
101317.4068
101322.7567
101321.6501
101315.5022
101308.3092
101304.4036
101305.5038
101310.8333
101317.0606
101320.2641
101317.8436
101309.8206
101296.8115
101282.3167
101270.0355
101263.9139
101265.7121
101275.3413
101290.237
101307.0954
101317.2165
101322.5876
101321.6038
101315.5088
101308.383
101304.1018
101304.5238
101308.9488
101314.4362
101317.4082
101315.4305
101308.5639
101297.515
101285.3676
101275.3943
101270.71
101272.3934
101280.3
101292.2839
101305.9271
101314.568
101319.1639
101318.4081
101313.2805
101307.2677
101303.414
101303.3545
101306.6177
101310.848
101313.2762
101311.8596
101306.6251
101298.2178
101289.0459
101281.694
101278.4187
101279.7853
101285.6676
101294.4399
101303.9406
101309.7981
101312.9652
101312.5058
101309.0824
101305.0781
101302.4115
101302.1604
101304.0941
101306.7398
101308.2685
101307.3981
101304.133
101298.8843
101293.1963
101288.6863
101286.7646
101287.6655
101291.3134
101296.6563
101301.4333
101303.6438
101304.8415
101304.6521
101303.3564
101301.8669
101300.8227
101300.6809
101301.3308
101302.2709
101302.8304
101302.5587
101301.4164
101299.5986
101297.6294
101296.1081
101295.4868
101295.8232
101297.089
101298.8869
101306.2589
101316.2108
101324.2119
101329.862
101335.5589
101341.9104
101347.8151
101349.4754
101345.8723
101336.5823
101323.7133
101309.548
101295.5874
101281.7064
101269.0216
101259.4973
101255.8226
101259.8533
101271.7036
101289.0174
101305.9115
101315.333
101322.8467
101328.1418
101333.6474
101339.8608
101345.639
101347.1632
101343.4957
101334.3031
101321.7331
101308.0735
101294.67
101281.4466
101269.358
101260.2276
101256.6838
101260.6234
101272.2386
101289.2371
101305.2854
101313.7366
101320.3643
101325.0126
101330.121
101336.001
101341.4853
101342.7382
101338.9742
101330.0288
101318.1122
101305.4622
101293.1912
101281.2231
101270.2187
101261.7542
101258.3769
101262.0863
101273.2304
101289.6349
101304.488
101311.6855
101317.1606
101320.9579
101325.4759
101330.7995
101335.7303
101336.6223
101332.7939
101324.3065
101313.4507
101302.3014
101291.7048
101281.4529
101271.8078
101264.079
101260.7654
101264.0552
101274.5223
101290.1305
101303.6499
101309.5059
101313.7251
101316.5771
101320.2807
101324.8672
101329.0142
101329.4536
101325.6714
101317.9394
101308.5587
101299.3132
101290.7765
101282.4538
101274.1677
101267.0064
101263.5223
101266.1881
101275.8564
101290.6118
101302.886
101307.4899
101310.5261
101312.4411
101315.2077
101318.8976
101322.1071
101322.0711
101318.4648
101311.8233
101304.2364
101297.1235
101290.708
101284.2106
101277.0117
101270.0673
101266.1243
101268.0257
101276.9203
101290.9606
101302.2939
101305.8744
101307.9548
101309.0361
101310.8837
101313.5748
101315.8159
101315.3513
101312.126
101306.8151
101301.1889
101296.1209
101291.5191
101286.3793
101279.7904
101272.6538
101268.028
101269.1554
101277.4491
101291.0814
101301.956
101304.9218
101306.4559
101306.9311
101307.9281
101309.5987
101310.9688
101310.2311
101307.4718
101303.5019
101299.7434
101296.3614
101293.0028
101288.518
101282.0003
101274.341
101268.9668
101269.4449
101277.3816
101290.9496
101301.9257
101304.7958
101306.2526
101306.4316
101306.7648
101307.5247
101308.1687
101307.3306
101305.0782
101302.2267
101299.9311
101297.6478
101294.8488
101290.3054
101283.3528
101274.9077
101268.806
101268.846
101276.714
101290.5638
101302.2666
101305.6034
101307.4613
101307.6795
101307.5362
101307.5478
101307.5518
101306.6266
101304.8999
101302.8903
101301.449
101299.6274
101296.7322
101291.531
101283.6895
101274.3585
101267.7062
101267.5903
101275.6558
101290.0523
101303.037
101307.513
101310.2117
101310.7121
101310.1992
101309.2819
101308.7131
101307.6509
101306.3694
101304.9505
101303.8734
101301.9465
101298.3828
101292.1122
101283.2228
101273.1358
101266.2309
101266.2399
101274.6673
101289.6155
101304.1937
101310.4069
101314.3021
101315.1854
101314.1752
101312.3175
101311.0313
101309.758
101308.7708
101307.6993
101306.6108
101304.1987
101299.6619
101292.2093
101282.4553
101271.9346
101265.1601
101265.5119
101274.2621
101289.4506
101305.5833
101313.818
101319.0693
101320.3511
101318.8383
101315.9706
101313.7743
101312.1479
101311.3073
101310.3745
101309.0706
101306.0009
101300.5508
101292.2043
101281.9351
101271.4644
101265.1562
101265.9183
101274.74
101289.6813
101306.9326
101317.1128
101323.5998
101325.2369
101323.1531
101319.1979
101316.117
101314.1035
101313.2312
101312.3552
101310.7542
101307.133
101301.1385
101292.3827
101282.0839
101272.1704
101266.5506
101267.6046
101276.1549
101290.2991
101307.9065
101319.5385
101326.8601
101328.649
101326.0161
101321.1767
101317.2609
101314.873
101314.0124
101313.2146
101311.435
101307.5674
101301.5271
101292.9188
101283.0903
101274.099
101269.3411
101270.6096
101278.5102
101291.2888
101308.1664
101320.281
101327.7857
101329.569
101326.6123
101321.3978
101317.012
101314.4182
101313.5313
101312.8396
101311.0613
101307.3396
101301.7009
101293.8027
101284.9556
101277.1972
101273.3823
101274.7423
101281.6493
101292.5923
101307.5844
101318.928
101325.8989
101327.5006
101324.5704
101319.5825
101315.2684
101312.743
101311.8928
101311.3253
101309.7618
101306.5167
101301.6537
101294.9515
101287.5491
101281.2791
101278.3957
101279.686
101285.3377
101294.1155
101306.1208
101315.3983
101321.08
101322.3593
101319.8735
101315.7623
101312.1105
101309.9983
101309.2787
101308.8162
101307.626
101305.1251
101301.3743
101296.2891
101290.7293
101286.1119
101284.1125
101285.1764
101289.3667
101295.759
101303.9701
101310.076
101313.8425
101314.6618
101312.9781
101310.2764
101307.8475
101306.4418
101305.9478
101305.6304
101304.8373
101303.2262
101300.8533
101297.6947
101294.2683
101291.4381
101290.2803
101290.9874
101293.5702
101297.4479
101301.4113
101303.6502
101305.0136
101305.2666
101304.598
101303.602
101302.6997
101302.2056
101302.0511
101301.9744
101301.6946
101301.1234
101300.2711
101299.1755
101297.9789
101297.0238
101296.655
101296.9427
101297.8358
101299.153
101306.823
101316.8718
101323.2612
101325.8858
101327.262
101329.3173
101332.2881
101333.2593
101331.6392
101326.3645
101318.547
101309.1749
101298.8748
101288.1127
101277.9583
101270.1768
101267.394
101270.4983
101279.6065
101292.3263
101306.5838
101316.2106
101322.2003
101324.5015
101325.5959
101327.4223
101330.1439
101330.91
101329.1984
101324.0053
101316.5124
101307.6062
101297.961
101287.9309
101278.4024
101271.0145
101268.351
101271.3345
101280.1987
101292.5968
101306.1324
101315.0038
101320.2662
101321.9941
101322.561
101323.9285
101326.1779
101326.5569
101324.6528
101319.6628
101312.8102
101304.8413
101296.4322
101287.7643
101279.4063
101272.7453
101270.2804
101273.0017
101281.3729
101293.1247
101305.5313
101313.4132
101317.7918
101318.8201
101318.6962
101319.4366
101320.9968
101320.8533
101318.6708
101314.0437
101308.1013
101301.4967
101294.8053
101287.9591
101281.1263
101275.3844
101273.1252
101275.4348
101283.0559
101293.8589
101304.8752
101311.6829
101315.166
101315.5619
101314.752
101314.7692
101315.5262
101314.7126
101312.2604
101308.0972
101303.2266
101298.256
101293.5436
101288.6833
101283.491
101278.6772
101276.5509
101278.3232
101285.0072
101294.6744
101304.2757
101310.1025
101312.8498
101312.778
101311.5004
101310.8124
101310.6839
101309.2038
101306.5033
101302.7675
101298.994
101295.6414
101292.8413
101289.8279
101286.0935
101282.0382
101279.8983
101281.0719
101286.8127
101295.3962
101303.8221
101308.9394
101311.2566
101310.9744
101309.4583
101308.2782
101307.4418
101305.3512
101302.3341
101298.8825
101295.9895
101293.9146
101292.6095
101291.0129
101288.3427
101284.7691
101282.4645
101283.0835
101288.0686
101295.8696
101303.6043
101308.4553
101310.8129
101310.7219
101309.2787
101307.7526
101306.2943
101303.6855
101300.3178
101296.9192
101294.4637
101293.111
101292.6192
101291.7971
101289.705
101286.321
101283.7756
101283.9943
101288.5556
101296.0114
101303.7162
101308.9126
101311.8125
101312.2512
101311.1327
101309.448
101307.5078
101304.4425
101300.5768
101296.8503
101294.2905
101292.979
101292.5654
101291.8392
101289.8217
101286.3721
101283.6167
101283.674
101288.1918
101295.7799
101304.1967
101310.3709
101314.2666
101315.5535
101314.9784
101313.2326
101310.8821
101307.2884
101302.758
101298.2874
101295.059
101293.1636
101292.225
101291.061
101288.7008
101284.9615
101282.0418
101282.1325
101287.0255
101295.2217
101305.0217
101312.7163
101318.0277
101320.3329
101320.3
101318.4852
101315.7415
101311.4644
101306.0911
101300.5623
101296.2508
101293.3826
101291.5208
101289.5665
101286.6059
101282.5171
101279.5785
101280.0213
101285.4723
101294.5231
101306.0539
101315.6159
101322.4975
101325.8873
101326.2357
101324.2939
101321.0668
101315.9907
101309.68
101303.0526
101297.5314
101293.495
101290.5657
101287.7526
101284.1827
101279.9097
101277.1822
101278.1084
101284.1255
101293.8912
101307.1304
101318.4902
101326.8121
101331.1023
101331.782
101329.7208
101325.8591
101319.9692
101312.8296
101305.2359
101298.5429
101293.4766
101289.5975
101286.0562
101282.1351
101277.9446
101275.6316
101277.0147
101283.3919
101293.4975
101308.0129
101320.7172
101330.0045
101334.8604
101335.668
101333.4102
101329.073
101322.6818
101315.01
101306.7371
101299.2292
101293.4487
101288.928
101284.9847
101281.0334
101277.1414
101275.3453
101277.1556
101283.5446
101293.4422
101308.437
101321.6829
101331.2849
101336.2976
101337.0926
101334.6949
101330.0833
101323.522
101315.7284
101307.3928
101299.6561
101293.5711
101288.8288
101284.8548
101281.1129
101277.7903
101276.4524
101278.4921
101284.565
101293.8107
101308.2199
101321.0524
101330.1627
101334.9338
101335.6276
101333.2933
101328.77
101322.5494
101315.2271
101307.3082
101299.9504
101294.0251
101289.4872
101285.7854
101282.4629
101279.7581
101278.8903
101280.876
101286.3484
101294.4911
101307.3
101318.6521
101326.5671
101330.7022
101331.2505
101329.1715
101325.1697
101319.811
101313.5477
101306.6722
101300.1945
101294.8709
101290.8905
101287.7209
101284.97
101282.8836
101282.3789
101284.1665
101288.7812
101295.4574
101305.7099
101314.6244
101320.7436
101323.9444
101324.3111
101322.666
101319.5588
101315.5072
101310.763
101305.4452
101300.3458
101296.1227
101292.9726
101290.5322
101288.4875
101287.0322
101286.7951
101288.2325
101291.7213
101296.6408
101303.6186
101309.3078
101313.2209
101315.2336
101315.4277
101314.3729
101312.4374
101309.9432
101307.0059
101303.6012
101300.3208
101297.5729
101295.5298
101293.982
101292.7378
101291.8837
101291.8288
101292.7474
101294.918
101297.9247
101301.2464
101303.2564
101304.6248
101305.2998
101305.312
101304.9313
101304.2462
101303.4383
101302.4794
101301.3458
101300.1811
101299.1666
101298.3879
101297.8118
101297.3356
101297.0887
101297.0832
101297.473
101298.2219
101299.294
101306.1656
101314.7793
101319.7471
101321.2535
101320.1541
101318.7773
101318.3212
101317.9242
101317.731
101315.4153
101310.4545
101302.479
101292.7865
101282.6141
101273.8357
101268.5479
101268.5093
101273.3086
101282.487
101294.1146
101306.1655
101314.7511
101319.663
101320.991
101319.6653
101318.0312
101317.299
101316.5707
101316.0374
101313.6844
101308.9735
101301.5074
101292.5593
101283.2001
101275.0881
101270.1753
101270.2231
101274.7829
101283.4781
101294.5424
101306.1381
101314.6278
101319.4205
101320.4898
101318.7812
101316.6972
101315.4438
101314.1034
101313.0012
101310.5857
101306.318
101299.8485
101292.2375
101284.3624
101277.5014
101273.3074
101273.5071
101277.6245
101285.4062
101295.373
101306.0587
101314.3384
101318.9857
101319.8325
101317.7192
101315.0965
101313.2012
101311.1015
101309.3353
101306.8154
101303.1021
101297.8841
101291.9876
101286.0043
101280.8251
101277.622
101278.0466
101281.594
101288.1303
101296.5334
101305.9108
101313.9107
101318.4628
101319.1762
101316.7869
101313.7186
101311.2008
101308.2711
101305.8847
101303.1315
101299.9204
101295.9763
101291.8977
101287.8758
101284.553
101282.5267
101283.2268
101286.1663
101291.2909
101297.8636
101305.7233
101313.4667
101318.0417
101318.8711
101316.4859
101313.1503
101310.0476
101306.5527
101303.4305
101300.2733
101297.3267
101294.3445
101291.8535
101289.6472
101288.0567
101287.2083
101288.1961
101290.5573
101294.3193
101299.1142
101305.5863
101313.2502
101318.0821
101319.3535
101317.3541
101314.1084
101310.7416
101306.5926
101302.6544
101298.8151
101295.6565
101293.0745
101291.6237
101290.8047
101290.6583
101290.8166
101292.073
101293.9818
101296.6685
101300.0623
101305.607
101313.5573
101318.9902
101321.0258
101319.7975
101316.866
101313.3559
101308.6216
101303.6589
101298.7898
101294.8156
101292.0084
101290.9653
101290.9115
101291.7995
101292.7118
101294.1835
101295.847
101297.9454
101300.5511
101305.8381
101314.5483
101320.9437
101324.0586
101323.8561
101321.4623
101317.875
101312.4911
101306.2529
101299.9248
101294.5821
101290.9255
101289.544
101289.6956
101291.0983
101292.5078
101294.1789
101295.8494
101297.93
101300.4901
101306.2933
101316.2232
101323.9358
101328.3934
101329.3716
101327.5809
101323.8795
101317.697
101309.9425
101301.6739
101294.5035
101289.4792
101287.2096
101287.0044
101288.4845
101290.0373
101291.8466
101293.8234
101296.498
101299.8507
101306.9259
101318.3592
101327.5889
101333.4712
101335.6494
101334.4298
101330.5163
101323.3748
101313.9023
101303.5683
101294.2938
101287.5874
101284.0565
101283.2976
101284.5581
101286.1584
101288.0772
101290.514
101294.1529
101298.8052
101307.5917
101320.518
101331.1572
101338.3542
101341.5572
101340.869
101336.6976
101328.5056
101317.3527
101305.0466
101293.7672
101285.3077
101280.5637
101279.1919
101280.1584
101281.6869
101283.7231
101286.693
101291.4559
101297.574
101308.0845
101322.1672
101333.8384
101342.1235
101346.0726
101345.9018
101341.3962
101332.2902
101319.7717
101305.8496
101292.9742
101283.0906
101277.4053
101275.4849
101276.0891
101277.5591
101279.7325
101283.2301
101288.9951
101296.411
101308.2621
101322.7339
101334.768
101343.5002
101348.0563
101348.3218
101343.7869
101334.2021
101320.8359
101305.9109
101292.0899
101281.4835
101275.3078
101273.0274
101273.3549
101274.7291
101277.0381
101280.8492
101287.2835
101295.5303
101307.9995
101322.0057
101333.6229
101342.2314
101346.9999
101347.687
101343.4221
101333.9756
101320.5705
101305.5064
101291.5317
101280.9609
101274.7082
101272.2998
101272.4409
101273.7163
101276.0947
101280.1101
101286.7009
101295.0796
101307.2907
101319.9822
101330.4063
101338.3144
101342.9308
101343.9294
101340.213
101331.6122
101319.1648
101304.976
101291.6982
101281.7926
101275.857
101273.5222
101273.5737
101274.7832
101277.0463
101280.942
101287.2214
101295.1137
101306.1755
101316.768
101325.3687
101332.0355
101336.1396
101337.2598
101334.357
101327.1907
101316.6369
101304.3546
101292.6825
101284.0292
101278.7901
101276.7019
101276.7002
101277.773
101279.7302
101283.1571
101288.6585
101295.5995
101304.6784
101312.6118
101318.9398
101323.9688
101327.1977
101328.2436
101326.2483
101320.9429
101312.9915
101303.5393
101294.3955
101287.5816
101283.4313
101281.7446
101281.7113
101282.5656
101284.1276
101286.7805
101291.0904
101296.5206
101302.9032
101307.8103
101311.6549
101314.7834
101316.8515
101317.6129
101316.4921
101313.2726
101308.3631
101302.3976
101296.537
101292.1111
101289.4151
101288.3103
101288.286
101288.8433
101289.8905
101291.5581
101294.3081
101297.76
101300.9791
101302.6357
101303.9043
101304.9451
101305.6436
101305.9328
101305.6035
101304.572
101302.9804
101300.9463
101298.871
101297.2087
101296.179
101295.7304
101295.6765
101295.8781
101296.2499
101296.9062
101297.9209
101299.1954
101305.1728
101313.3059
101319.1533
101322.5004
101322.5882
101320.3332
101317.7114
101315.9178
101314.8546
101311.9619
101305.4413
101294.3102
101280.5868
101267.0941
101257.1432
101253.1655
101256.4918
101265.2585
101277.9272
101293.4238
101305.4064
101313.8119
101319.8709
101323.2404
101323.1488
101320.5902
101317.6314
101315.4634
101314.0589
101311.0934
101304.8058
101294.341
101281.4675
101268.8233
101259.6473
101256.1275
101259.4679
101267.8505
101279.6695
101294.1037
101305.8057
101314.6877
101321.1247
101324.545
101324.2069
101321.1473
101317.6855
101314.8433
101312.8142
101309.6527
101303.7837
101294.3893
101283.0176
101272.021
101264.2315
101261.5627
101264.9502
101272.6565
101282.925
101295.3827
101306.2793
101315.6831
101322.6182
101326.1753
101325.676
101322.1404
101318.3051
101314.6746
101311.7086
101308.0599
101302.48
101294.3848
101284.8681
101275.9533
101270.0067
101268.5948
101272.1423
101278.9975
101287.2679
101297.0951
101306.7
101316.5939
101324.1086
101327.9924
101327.5658
101323.7757
101319.5004
101315.1221
101311.2783
101306.9002
101301.438
101294.4402
101286.7769
101280.0832
101276.1905
101276.133
101279.9796
101285.9597
101292.0787
101298.9949
101307.0276
101317.3517
101325.5711
101330.0319
101330.0414
101326.3285
101321.783
101316.6857
101311.7818
101306.4385
101300.6916
101294.3032
101288.108
101283.4162
101281.5917
101282.9878
101287.2632
101292.4811
101296.5869
101300.7698
101307.2882
101318.1687
101327.2212
101332.5043
101333.2629
101330.0677
101325.4959
101319.6658
101313.4315
101306.7212
101300.2081
101293.8248
101288.4782
101285.443
101285.3541
101288.1133
101292.8324
101297.5885
101300.1341
101302.1536
101307.5518
101319.1997
101329.2337
101335.5776
101337.4003
101335.0461
101330.5558
101323.9798
101316.25
101307.8011
101299.9029
101292.9653
101287.7338
101285.7262
101286.9351
101290.7714
101296.0047
101300.5834
101302.2431
101302.9691
101307.8578
101320.5616
101331.7395
101339.3546
101342.4229
101341.0562
101336.7398
101329.4223
101319.9832
101309.225
101299.3012
101291.0977
101285.4699
101283.8055
101285.7871
101290.4758
101296.2674
101300.9971
101302.6034
101303.0824
101308.2072
101322.2158
101334.6764
101343.6985
101348.0972
101347.7318
101343.5751
101335.4518
101324.1954
101311.0579
101298.4614
101288.4871
101282.0216
101280.039
101282.2564
101287.3532
101293.5442
101298.722
101301.066
101302.4478
101308.5097
101323.8341
101337.547
101347.9607
101353.7106
101354.3321
101350.2604
101341.2505
101328.1305
101312.5698
101297.4922
101285.2743
101277.5421
101274.8549
101276.8975
101282.0758
101288.4767
101294.3213
101297.9924
101301.1683
101308.6356
101324.9096
101339.5851
101351.1866
101358.1724
101359.7684
101355.7998
101345.931
101331.1541
101313.4767
101296.1376
101281.9946
101272.7734
101269.1543
101270.7425
101275.754
101282.2376
101288.7546
101294.0796
101299.4616
101308.4743
101324.9047
101340.0251
101352.463
101360.433
101363.0567
101359.2473
101348.8356
101332.7522
101313.5439
101294.6205
101279.0693
101268.5646
101264.0449
101264.9894
101269.631
101275.9822
101283.0759
101290.0246
101297.6479
101307.9183
101323.7212
101338.4767
101351.2185
101359.7435
101363.2559
101359.8112
101349.3374
101332.7332
101312.8456
101293.2251
101276.8413
101265.5607
101260.4062
101260.7885
101264.8994
101270.9117
101278.3602
101286.586
101296.0382
101307.0635
101321.4822
101335.1381
101347.4603
101356.1773
101360.2824
101357.43
101347.5244
101331.334
101311.7914
101292.3961
101276.0489
101264.6478
101259.1283
101259.0341
101262.5692
101268.1813
101275.4946
101284.4758
101294.9258
101305.9395
101318.3357
101330.223
101341.4151
101349.8384
101354.2119
101352.097
101343.3285
101328.5559
101310.5009
101292.3837
101276.9834
101266.125
101260.6245
101260.1808
101263.1573
101268.2089
101275.0446
101283.9791
101294.4127
101304.672
101314.5473
101324.1366
101333.5298
101341.0459
101345.2954
101343.9278
101336.7539
101324.3084
101308.854
101293.1317
101279.6403
101270.031
101265.0402
101264.4113
101266.7965
101271.0218
101276.9732
101285.0734
101294.5906
101303.3207
101310.4303
101317.3672
101324.4286
101330.3922
101334.0045
101333.2726
101328.0245
101318.6646
101306.8203
101294.5735
101283.9957
101276.3991
101272.3673
101271.7337
101273.4442
101276.6453
101281.2606
101287.7847
101295.5011
101301.9751
101306.254
101310.4464
101314.8113
101318.7169
101321.1299
101320.8523
101317.6402
101311.8159
101304.3229
101296.5106
101289.7112
101284.8142
101282.1868
101281.7262
101282.756
101284.7663
101287.7024
101291.9827
101297.0316
101300.635
101302.0163
101303.292
101304.7613
101306.1074
101307.0242
101307.0328
101306.0466
101304.134
101301.6
101298.7997
101296.2835
101294.4658
101293.5052
101293.3206
101293.6389
101294.2731
101295.3936
101296.9743
101298.9247
101305.0467
101313.7039
101322.1808
101328.8429
101332.2924
101331.4616
101328.1483
101324.3207
101320.4033
101313.6309
101301.8963
101284.5889
101264.0127
101244.6771
101232.1912
101228.8269
101235.9768
101250.2197
101268.1837
101290.7616
101305.3769
101314.4213
101323.2344
101329.9627
101333.3053
101332.1301
101328.5754
101324.5978
101320.5618
101313.7839
101302.4268
101285.8621
101266.4076
101248.0645
101236.3482
101233.2206
101240.2127
101253.888
101270.64
101291.6068
101305.9464
101315.7026
101325.0755
101331.9814
101335.1526
101333.5211
101329.6155
101325.2636
101320.6416
101313.8271
101303.0671
101287.7624