/*--------------------------------*- C++ -*----------------------------------*\
| =========                 |                                                 |
| \\      /  F ield         | OpenFOAM: The Open Source CFD Toolbox           |
|  \\    /   O peration     | Version:  5.x                                   |
|   \\  /    A nd           | Web:      www.OpenFOAM.org                      |
|    \\/     M anipulation  |                                                 |
\*---------------------------------------------------------------------------*/
FoamFile
{
    version     2.0;
    format      ascii;
    class       volScalarField;
    location    "1.2";
    object      rho;
}
// * * * * * * * * * * * * * * * * * * * * * * * * * * * * * * * * * * * * * //

dimensions      [1 -3 0 0 0 0 0];

internalField   nonuniform List<scalar> 
30538
(
1.28554529
1.289823138
1.289909216
1.289997024
1.290106138
1.290217373
1.290297679
1.290316562
1.290262507
1.290128943
1.289940636
1.289728526
1.289523424
1.289334051
1.289184193
1.28909713
1.289092033
1.289178824
1.289361278
1.291834714
1.285565096
1.289822981
1.289906687
1.289994546
1.290104715
1.290216942
1.290296905
1.290313806
1.290257704
1.290123742
1.289937463
1.289730555
1.28953139
1.289348231
1.28920316
1.289117758
1.28911166
1.289195382
1.289373551
1.291832387
1.285601618
1.289815611
1.289894662
1.289982026
1.290093164
1.290206392
1.290285253
1.290298749
1.290239375
1.290105744
1.289924645
1.289728201
1.289540002
1.289368111
1.289231335
1.289148177
1.289139452
1.289217123
1.289387079
1.291822944
1.28565667
1.289806415
1.289878815
1.289964128
1.290074672
1.290187607
1.290263762
1.290273025
1.290211182
1.290080722
1.289909361
1.289728244
1.289554995
1.289397364
1.289269989
1.28918778
1.289173947
1.289242785
1.289402272
1.291809593
1.285737121
1.289796305
1.289860559
1.289941122
1.290048601
1.290158517
1.290230104
1.29023546
1.290173593
1.290050933
1.289894797
1.289733595
1.289578486
1.2894356
1.289315589
1.289230658
1.289208684
1.289266449
1.289415046
1.291788925
1.285833481
1.289785742
1.289840581
1.289913049
1.290014171
1.290117656
1.290183383
1.290186872
1.290128774
1.290019174
1.289884217
1.28974671
1.289611654
1.289481335
1.289363667
1.289270909
1.289237647
1.289283518
1.289422698
1.291764725
1.285958815
1.289774581
1.289818869
1.289880302
1.289971837
1.290065583
1.290124827
1.290129099
1.290079634
1.28998918
1.289880949
1.289768036
1.289652317
1.28953006
1.289409218
1.28930426
1.289256996
1.289291398
1.289423755
1.29172866
1.286099047
1.289763509
1.289796778
1.289846283
1.289924746
1.290004958
1.29005726
1.290065145
1.290029984
1.289964708
1.289885985
1.289797733
1.289697911
1.289578392
1.289449367
1.289329036
1.289265349
1.289289576
1.289418223
1.291684986
1.286275067
1.28975478
1.289777924
1.28981418
1.289876033
1.289940039
1.289985087
1.289999229
1.289983941
1.289948107
1.289900077
1.289833878
1.289744602
1.289622342
1.289481199
1.289343462
1.289263525
1.289280178
1.289408316
1.291628085
1.286456247
1.28975036
1.289764832
1.289787428
1.289829972
1.289876479
1.289914908
1.289936569
1.289944907
1.289940691
1.289921557
1.289873142
1.289788407
1.289658381
1.289502544
1.289348103
1.289254714
1.289267225
1.289397454
1.291560117
1.286676598
1.289754532
1.289763032
1.28977253
1.289793407
1.289820816
1.289852368
1.289882366
1.289914685
1.289941507
1.289947506
1.289911534
1.289825733
1.289684337
1.289513702
1.289346561
1.289244572
1.289256302
1.289389759
1.291471057
1.28690339
1.289771173
1.289778249
1.289774218
1.289772989
1.289778414
1.289800597
1.289838227
1.289893723
1.289947346
1.289973627
1.289945076
1.289854598
1.289701812
1.28951927
1.289345234
1.289240756
1.289254093
1.289389705
1.29136789
1.287169774
1.289799783
1.289810671
1.289794932
1.289771557
1.289752244
1.289761674
1.289804673
1.289879314
1.28995406
1.289995189
1.289970607
1.289875165
1.289713674
1.289524093
1.289349759
1.289248971
1.289265031
1.289399922
1.291237459
1.287442342
1.289836004
1.289854721
1.289831614
1.289786342
1.289742129
1.289736762
1.289780758
1.28986734
1.289956605
1.290007443
1.289985217
1.289887191
1.289722401
1.28953299
1.289365215
1.289273263
1.289292167
1.289422264
1.291095948
1.287752975
1.289872096
1.289900568
1.289873443
1.289809955
1.289745384
1.289724654
1.289763684
1.28985362
1.289950167
1.29000607
1.289986002
1.289889782
1.289729285
1.289548667
1.289394417
1.289314921
1.289335773
1.289456365
1.290922663
1.288070804
1.289897433
1.289933326
1.289905729
1.289831952
1.289755634
1.28972274
1.289752748
1.28983623
1.289932159
1.28998841
1.289971535
1.289882739
1.289735365
1.289572521
1.289438258
1.289373019
1.289394071
1.289500409
1.290746026
1.288423311
1.289903192
1.289941736
1.289916876
1.289843471
1.289766514
1.289727805
1.289747707
1.28981843
1.289903384
1.289955117
1.289942255
1.289866391
1.28974083
1.289604193
1.289495308
1.289445112
1.289464374
1.289552061
1.290533138
1.288784439
1.289885687
1.289920075
1.289900656
1.289839002
1.289773055
1.289736667
1.289747557
1.28980073
1.289866779
1.28990861
1.289900089
1.28984214
1.289746167
1.289643035
1.289562924
1.289527434
1.289542903
1.289608517
1.290329346
1.289167545
1.289846534
1.289869354
1.289856309
1.289813865
1.289769717
1.289743842
1.289749175
1.289782511
1.289824974
1.289852287
1.289847434
1.28981201
1.289752248
1.289689364
1.289640072
1.289619958
1.289628916
1.289669595
1.290091093
1.288973001
1.28867085
1.287734139
1.287448515
1.286912792
1.286937029
1.286844047
1.287109646
1.287413579
1.287832131
1.288472741
1.288922871
1.289772887
1.290027499
1.290867563
1.290670203
1.29127088
1.290516187
1.290799832
1.289802215
1.284995144
1.289857757
1.289945858
1.290022097
1.29011087
1.290204058
1.290275633
1.290292682
1.290246484
1.29013026
1.289967978
1.289787599
1.289613438
1.289449372
1.289312036
1.289221455
1.289201013
1.289265192
1.289419166
1.292164753
1.285013402
1.289855408
1.289939548
1.290014263
1.290102742
1.290195676
1.290266497
1.290282633
1.290235372
1.290119458
1.289959678
1.2897844
1.289615635
1.289457449
1.289325094
1.289237058
1.289216573
1.289278746
1.289429587
1.292166719
1.285047363
1.289843883
1.289920926
1.289992525
1.290079646
1.290171538
1.290240399
1.290254515
1.290205683
1.290091254
1.289937083
1.28977201
1.289613691
1.289466499
1.289342973
1.289258937
1.28923783
1.289295739
1.289440499
1.292164967
1.285099789
1.289829248
1.289897091
1.289963798
1.290047207
1.290136531
1.290201967
1.290212972
1.290162883
1.290052712
1.289908479
1.289758483
1.289615065
1.289482533
1.289369455
1.289288838
1.28926539
1.289316742
1.289453356
1.292160396
1.2851765
1.289813745
1.289871209
1.289930937
1.29000794
1.29009243
1.290152322
1.290160146
1.290110426
1.290008095
1.289879182
1.289748465
1.289623514
1.289506872
1.289403118
1.289323086
1.289294398
1.289337158
1.289464912
1.292150442
1.285274004
1.289798862
1.289845473
1.289896055
1.289964975
1.290041506
1.290094466
1.290099938
1.290053447
1.289962934
1.289854384
1.289746206
1.289641547
1.289539079
1.289440724
1.289356829
1.289319551
1.289352649
1.289472351
1.292132322
1.285399718
1.289785374
1.28982134
1.289861527
1.28992111
1.289987205
1.290032467
1.290037034
1.289997014
1.289923675
1.289838951
1.289754103
1.289668408
1.289575386
1.289477047
1.289385056
1.289336873
1.289360609
1.289474247
1.292104478
1.285547785
1.289775036
1.289801692
1.289831714
1.289880131
1.289933953
1.289971057
1.289976272
1.289947526
1.289895435
1.289835776
1.289771972
1.289700996
1.2896121
1.289508844
1.289405659
1.289345066
1.289360329
1.28947036
1.292057812
1.285734242
1.289769785
1.289789286
1.289809606
1.289845012
1.289885788
1.289915875
1.289923574
1.28990945
1.289880588
1.289844998
1.289798478
1.289736353
1.28964598
1.289533569
1.289416719
1.289343811
1.289352811
1.289461971
1.291999587
1.285936444
1.289770647
1.289785958
1.289797634
1.289819267
1.289846755
1.289871015
1.289883139
1.289885039
1.289878785
1.289864724
1.289830487
1.289770996
1.289673699
1.289549167
1.2894185
1.289335477
1.289341196
1.289451997
1.291914397
1.28618051
1.289781153
1.289795871
1.289799998
1.289807466
1.289820478
1.289838515
1.289855536
1.289873884
1.289888316
1.289891073
1.28986391
1.289801459
1.289693342
1.289556154
1.289414683
1.289325452
1.289330905
1.289444519
1.291812392
1.286442938
1.289802978
1.289821739
1.289819473
1.289812152
1.289808527
1.289817908
1.289838989
1.289872534
1.289904271
1.289918972
1.289894476
1.289825519
1.289705968
1.289558582
1.289411529
1.289321129
1.289328529
1.289443988
1.291676964
1.286747237
1.289833832
1.289860438
1.289853665
1.289831745
1.289808828
1.289807466
1.289830325
1.289875593
1.289920401
1.289942716
1.289918331
1.289842731
1.2897146
1.289561285
1.289414717
1.289328267
1.289338543
1.289453031
1.291522536
1.287067397
1.289868868
1.289904915
1.289896075
1.289859836
1.289817762
1.289804089
1.289825475
1.289877291
1.289930581
1.289957248
1.289932586
1.28985324
1.289721663
1.289568487
1.289428233
1.289349703
1.289362935
1.289472746
1.29133938
1.287427686
1.289900854
1.289945995
1.28993583
1.289887027
1.289829827
1.289803881
1.289820465
1.289873551
1.289930484
1.289959245
1.289935205
1.289856652
1.28972808
1.289582109
1.289453796
1.28938598
1.289401487
1.289502657
1.291136289
1.287801344
1.289919487
1.289969805
1.289959751
1.289904007
1.289838785
1.289803368
1.28981335
1.289861681
1.289918146
1.289947188
1.289925247
1.289852496
1.289734525
1.289603083
1.289491712
1.289436193
1.289452484
1.28954108
1.290914556
1.28821158
1.289918401
1.289968271
1.289959333
1.289904068
1.289839458
1.289800636
1.289804466
1.289844594
1.289894352
1.289921295
1.289903366
1.289841093
1.289740903
1.28963075
1.289540307
1.289497831
1.289513086
1.289585611
1.290670777
1.288632775
1.289894927
1.289937233
1.289930373
1.289883879
1.28982936
1.289794413
1.289793876
1.289823463
1.289861819
1.289883835
1.289870995
1.289823523
1.289747284
1.289664101
1.289597436
1.289567725
1.289580122
1.289633915
1.290422282
1.28907672
1.289851324
1.289878292
1.289873325
1.289840306
1.289804299
1.289779829
1.289779021
1.289797741
1.289823033
1.289837666
1.289829951
1.289801359
1.289754329
1.289704562
1.289662983
1.289646464
1.289652654
1.289685841
1.290152749
1.28879261
1.288572513
1.287348666
1.287139646
1.286371778
1.28652232
1.286304928
1.286749941
1.287065814
1.287658542
1.288408875
1.288949971
1.289950302
1.290176568
1.291186063
1.290822601
1.291598633
1.290567917
1.291041311
1.289726407
1.284206645
1.289894484
1.289978953
1.290030111
1.290081796
1.290139401
1.290192887
1.290207934
1.290175292
1.290091081
1.289974408
1.289846001
1.289719343
1.289593437
1.289478432
1.289392061
1.289358739
1.289395259
1.28950866
1.292845663
1.284222345
1.289890734
1.289970639
1.290018594
1.290068522
1.290124859
1.290177243
1.29019107
1.290157828
1.290074467
1.289960498
1.289836684
1.289715102
1.289595172
1.289485543
1.289402747
1.289370651
1.28940633
1.289517845
1.292851478
1.284247956
1.289876459
1.289948131
1.289990227
1.290036548
1.290089862
1.290139586
1.290150953
1.290116837
1.290035707
1.289927672
1.289813005
1.289701701
1.289593155
1.289493353
1.289416596
1.289386009
1.289419602
1.28952676
1.292862059
1.284294783
1.289858126
1.28991908
1.289953469
1.289994431
1.290042702
1.290087413
1.290095501
1.290060801
1.289983822
1.289885409
1.289784344
1.289688224
1.289595247
1.289507773
1.28943768
1.289407669
1.289437463
1.289538361
1.292866409
1.284362539
1.289838658
1.28988793
1.289913753
1.289947327
1.289988921
1.290026528
1.2900305
1.289996225
1.289926093
1.28984105
1.289757244
1.289679807
1.289604324
1.289529182
1.289464239
1.289432666
1.289456816
1.289550325
1.292871669
1.28445773
1.28982076
1.289858925
1.289876253
1.289901335
1.289934802
1.289963907
1.289963566
1.289930889
1.289870628
1.289801864
1.289737378
1.289679181
1.28962025
1.289554982
1.289492008
1.289456254
1.289473487
1.289559808
1.292860852
1.284584064
1.289806602
1.28983561
1.289845383
1.289862138
1.289886543
1.289906867
1.289902639
1.289873413
1.28982521
1.289774235
1.289728274
1.289686531
1.289639919
1.289580188
1.289515471
1.289473518
1.289483733
1.28956441
1.29283633
1.284738166
1.289798562
1.289822019
1.289826298
1.289835343
1.289850492
1.289862912
1.289856219
1.289831207
1.289795168
1.28976113
1.289730448
1.289699985
1.289659318
1.289600233
1.289530771
1.28948203
1.289486357
1.289563558
1.292789877
1.28494002
1.289798166
1.289820176
1.289821768
1.289824798
1.289831691
1.289837531
1.289829928
1.289809497
1.289783612
1.289762829
1.289742106
1.289716723
1.289675524
1.289612494
1.289535906
1.289480572
1.289480918
1.289557197
1.292712285
1.285158896
1.28980629
1.289831133
1.289833085
1.289831791
1.289831901
1.289831937
1.289823546
1.289807875
1.289789642
1.289776586
1.28976006
1.289733811
1.289686644
1.289615547
1.289530922
1.289470596
1.28946952
1.289547218
1.292610036
1.285446977
1.289824562
1.289856066
1.28986058
1.289855936
1.289847624
1.289842464
1.289832828
1.289821198
1.289808335
1.289798563
1.289781095
1.289748781
1.289691918
1.289611314
1.28951983
1.289457217
1.289457271
1.289537792
1.29246223
1.285740309
1.289851716
1.289893148
1.289901134
1.289891979
1.289875136
1.289863478
1.289851928
1.289842979
1.289833263
1.28982338
1.289801521
1.289760381
1.289692798
1.289604348
1.289508933
1.289447503
1.289450667
1.289533631
1.292293573
1.286118267
1.289883652
1.289936373
1.289947974
1.289934261
1.289908261
1.289888348
1.289873595
1.289865984
1.289857523
1.289845683
1.289817864
1.289768441
1.289692751
1.289599628
1.289504671
1.289447469
1.289454354
1.289537458
1.292066609
1.286486902
1.289914426
1.289977449
1.289992277
1.289973387
1.289937526
1.289909586
1.289891331
1.289883427
1.289875484
1.289860948
1.289828129
1.289773766
1.289694367
1.289600974
1.289511076
1.289460119
1.289469653
1.289549783
1.291837148
1.286946345
1.289937388
1.290007013
1.290023216
1.289999345
1.289955468
1.289919956
1.28989831
1.289890507
1.289883278
1.289867123
1.289832069
1.289777293
1.289699234
1.289610106
1.28952857
1.289485423
1.289496905
1.289570593
1.291543227
1.28738221
1.289944974
1.290015407
1.290031559
1.290004746
1.289957467
1.289917695
1.289894187
1.289886144
1.289879878
1.289863738
1.289830002
1.289778867
1.289707249
1.289627018
1.289556662
1.289522069
1.289534388
1.28959854
1.291268291
1.287903892
1.289933571
1.289998298
1.290012807
1.289986239
1.289941014
1.289901893
1.289878999
1.28987129
1.289866147
1.289851959
1.289822541
1.289778441
1.289717666
1.289650537
1.289593678
1.28956753
1.289579224
1.289631459
1.290928305
1.288391119
1.28990225
1.289954609
1.289966204
1.289943665
1.289906385
1.289873268
1.289854118
1.289847591
1.289843396
1.289832599
1.289809926
1.289775906
1.289729791
1.289679364
1.289637494
1.289619364
1.289629013
1.289667559
1.290625127
1.288951325
1.289853377
1.28988571
1.289891504
1.289874579
1.289849819
1.289828308
1.289816958
1.289814252
1.289812798
1.289806601
1.289792321
1.289771807
1.289744035
1.289714491
1.289688697
1.289678538
1.28968332
1.28970634
1.290258406
1.288786055
1.288147086
1.287051307
1.286403409
1.285859208
1.285685282
1.285794804
1.28613081
1.286781495
1.28744339
1.288434396
1.289153515
1.290234324
1.290666874
1.291583522
1.291406369
1.291928125
1.291014764
1.291161625
1.289950335
1.282367461
1.289892858
1.289970333
1.289994076
1.290006618
1.29002528
1.290052125
1.290060884
1.290046236
1.289998444
1.289927602
1.289842596
1.289749145
1.289651524
1.289559508
1.289488939
1.289463695
1.289491796
1.289582354
1.294267548
1.282369225
1.289891103
1.289964748
1.289985572
1.289995568
1.290012136
1.290036769
1.290043712
1.290028208
1.289981104
1.28991315
1.289832415
1.289744931
1.289653977
1.289567616
1.289500596
1.289476449
1.289503434
1.289592514
1.29429478
1.282369256
1.289880434
1.289947205
1.289962856
1.289968064
1.289980458
1.290000812
1.290004241
1.289986993
1.289941729
1.289879585
1.289807341
1.289731068
1.289652457
1.289576714
1.289516293
1.289493944
1.289518548
1.289603026
1.29434277
1.282381775
1.289866402
1.289924762
1.289934097
1.289933021
1.289939722
1.289953838
1.289952532
1.289932751
1.289890783
1.289836885
1.289777013
1.28971631
1.289654213
1.289592292
1.28954022
1.289519735
1.289540605
1.289618084
1.294397125
1.282415923
1.289851206
1.289900951
1.289904572
1.289897255
1.289897397
1.289904239
1.289896862
1.289874628
1.289836866
1.289792686
1.289747625
1.289704874
1.289660784
1.289613718
1.289570073
1.289550792
1.289566804
1.289635518
1.294453938
1.282487205
1.289837479
1.289879952
1.289879335
1.289867765
1.289861516
1.289860339
1.289846919
1.28982244
1.289788528
1.289754319
1.289723908
1.289698517
1.289671166
1.289637311
1.289600536
1.289581137
1.289591745
1.289651585
1.29448501
1.282605216
1.289827662
1.289865508
1.28986297
1.289849236
1.289838537
1.289830943
1.289811987
1.289784637
1.289753297
1.28972708
1.289708255
1.28969642
1.289681915
1.289657707
1.289625292
1.289604402
1.28961
1.289662624
1.294492989
1.282777946
1.28982419
1.289861487
1.289860669
1.289847595
1.289833759
1.289820528
1.289796878
1.289766347
1.289735499
1.289713244
1.289700973
1.28969651
1.289689027
1.28967007
1.289639366
1.289616293
1.289618262
1.289666627
1.294442577
1.283016745
1.289829478
1.289870556
1.289874525
1.289864395
1.28984913
1.289831531
1.289803739
1.289768688
1.289734881
1.28971167
1.28969978
1.289696016
1.289689408
1.28967113
1.289639836
1.289614862
1.289615364
1.289662822
1.294352361
1.28331388
1.289844027
1.289892816
1.289904475
1.289899266
1.289883441
1.289862125
1.289829546
1.289788462
1.289747918
1.289718631
1.289701452
1.289692923
1.28968235
1.289660973
1.289627055
1.289600589
1.289601392
1.289651633
1.294175992
1.28369593
1.289866827
1.289926924
1.289947818
1.289947522
1.289931063
1.289906179
1.289867411
1.289818682
1.289768552
1.289729432
1.289703444
1.289686546
1.289668806
1.289641978
1.289604891
1.289578253
1.289582249
1.289636837
1.293961909
1.284126528
1.28989468
1.289967452
1.28999818
1.290001342
1.289983732
1.289954466
1.289908454
1.289851223
1.289791134
1.289741044
1.289704459
1.289677889
1.289652362
1.28962001
1.28958125
1.289556521
1.289564909
1.289623853
1.29365565
1.284647218
1.289922384
1.290006574
1.290045464
1.290051627
1.290032938
1.289997921
1.289944529
1.28987978
1.289810932
1.289750217
1.289704289
1.289669115
1.289636984
1.289601445
1.289563435
1.289542461
1.289554995
1.289616441
1.293321263
1.285197132
1.289944144
1.290035521
1.290079545
1.290086869
1.290066396
1.290027067
1.28996912
1.28989955
1.289824543
1.289756442
1.289704037
1.289663042
1.289627272
1.289591454
1.289556153
1.289539865
1.289556274
1.289617103
1.292908152
1.2858376
1.289954554
1.290047134
1.290092577
1.290099784
1.290078044
1.290036228
1.289976739
1.289906065
1.289830485
1.289760315
1.289705154
1.289662149
1.289626108
1.289592176
1.289562037
1.289549909
1.289568393
1.28962571
1.292482121
1.286473088
1.289950351
1.290036955
1.290080206
1.290086498
1.290065334
1.290024319
1.28996792
1.28990152
1.289829718
1.28976299
1.289709273
1.289668116
1.28963455
1.289604419
1.289579888
1.289572018
1.289590017
1.289641315
1.292009195
1.28719577
1.289930057
1.290004356
1.290041841
1.290046815
1.290027965
1.289991679
1.28994309
1.289886294
1.289823951
1.289765208
1.289716942
1.289680842
1.2896521
1.289627151
1.289608228
1.289603657
1.289619863
1.28966283
1.291524532
1.28788147
1.289894693
1.289951558
1.289980579
1.289983903
1.289968984
1.289940806
1.289904069
1.289861048
1.289812828
1.289766586
1.289728296
1.289699721
1.289677586
1.289659039
1.289645839
1.289643692
1.289656729
1.289688991
1.29102937
1.288649524
1.289845786
1.289877406
1.28989413
1.289891661
1.289883072
1.28986497
1.289845852
1.289821585
1.289793559
1.289765384
1.289741144
1.289724113
1.28971097
1.2897012
1.289693331
1.289692883
1.289699598
1.289718592
1.290515437
1.288196148
1.287819408
1.285794447
1.285388146
1.284072485
1.284322721
1.284007299
1.284947459
1.285623389
1.286871603
1.288225342
1.289304026
1.290932279
1.291328471
1.292874483
1.292146824
1.293277345
1.291378618
1.292084435
1.289751886
1.280363858
1.289862587
1.28993847
1.289952063
1.289942148
1.289929684
1.289925467
1.289921788
1.289920116
1.289899171
1.289854318
1.289781852
1.289693941
1.289601656
1.289522023
1.289474125
1.289473787
1.289517293
1.289610265
1.296325995
1.28034971
1.289866531
1.289941747
1.289953745
1.289941761
1.289926937
1.289920295
1.289913669
1.289908863
1.28988751
1.289844808
1.289777093
1.289695957
1.289611063
1.289537467
1.28949293
1.289493388
1.289534705
1.289624812
1.296373229
1.280304895
1.289865519
1.289939537
1.289949205
1.289933731
1.289914839
1.289903486
1.289891298
1.289881333
1.289859419
1.289820725
1.289762064
1.289693037
1.289621609
1.289559363
1.289521339
1.289523171
1.289560469
1.28964199
1.296487304
1.280279289
1.289863242
1.289935573
1.289943245
1.289924092
1.289900319
1.289883161
1.289864078
1.289848091
1.28982524
1.289791563
1.289744251
1.28969076
1.289636489
1.289589501
1.289560471
1.28956433
1.289596458
1.289666215
1.296594063
1.280257383
1.289859777
1.289930814
1.289937286
1.289915626
1.289887824
1.289865025
1.289838411
1.2898168
1.289791845
1.289762708
1.289726953
1.289689943
1.289653454
1.289623317
1.289604958
1.289611294
1.289637923
1.289694296
1.296736766
1.280297093
1.289856531
1.289926986
1.289934513
1.289912889
1.289882673
1.289854552
1.289822826
1.289794549
1.289765925
1.289739196
1.289712144
1.289689542
1.289669514
1.289655102
1.28964742
1.289656349
1.289677746
1.289721187
1.296817283
1.280392074
1.289855615
1.289927356
1.289938895
1.289920775
1.289891367
1.289860836
1.289823193
1.289787517
1.289752693
1.289724064
1.289700614
1.289687458
1.289680014
1.289678709
1.289680148
1.289691502
1.28970881
1.289741882
1.296866731
1.280564016
1.28985984
1.289935597
1.289954064
1.289942937
1.289916367
1.289884538
1.289841599
1.28979662
1.289752468
1.289716439
1.28969095
1.289681496
1.289680987
1.289689059
1.289697326
1.289710635
1.289725729
1.289752765
1.296827427
1.280849137
1.289870748
1.28995332
1.289981565
1.289979736
1.289958037
1.289925513
1.289876691
1.289820144
1.289762759
1.289714323
1.28968114
1.28966861
1.289669967
1.289682693
1.28969546
1.289710597
1.289725754
1.289751778
1.296688835
1.281198762
1.289887984
1.289980459
1.290020876
1.290029753
1.290013517
1.28997996
1.289923901
1.289853602
1.289778629
1.2897136
1.289668039
1.289647442
1.289645565
1.289658983
1.289673059
1.289689455
1.289707398
1.289737814
1.296462048
1.28171419
1.289909981
1.290013588
1.290066923
1.290086676
1.29007562
1.290040148
1.289975386
1.289889508
1.289795813
1.289711688
1.289650893
1.289618861
1.289611965
1.289623386
1.289637894
1.289655277
1.289677391
1.289715495
1.296090853
1.28225179
1.289931997
1.290045948
1.290111205
1.290140252
1.290134008
1.290096192
1.29002191
1.289920794
1.289809218
1.289706909
1.289630227
1.289587196
1.289574737
1.289583494
1.289597354
1.2896158
1.28964275
1.289690003
1.295667655
1.282989593
1.289949899
1.290070271
1.290145386
1.290181204
1.290179649
1.290138797
1.290056233
1.289942728
1.289816497
1.289699721
1.289610115
1.28955856
1.289541121
1.2895466
1.289559926
1.289579624
1.289611356
1.289666812
1.295086204
1.283684261
1.289957595
1.290078706
1.290157879
1.290199201
1.290201596
1.290160473
1.290073577
1.289952376
1.289817049
1.289691702
1.289595537
1.289539537
1.289518843
1.289521817
1.289534269
1.2895552
1.289589771
1.289650529
1.294511033
1.284598421
1.289954012
1.290068329
1.29014637
1.290189614
1.290195838
1.290157176
1.290071528
1.289949971
1.289813376
1.289686643
1.2895908
1.289534102
1.289512259
1.28951353
1.289525092
1.289546654
1.289583073
1.289644669
1.293785128
1.285399984
1.289938101
1.290039163
1.290110855
1.290152724
1.290161773
1.290128078
1.290050094
1.289937227
1.289808567
1.289688158
1.289598344
1.289544518
1.28952335
1.289523808
1.289534775
1.289555294
1.289590619
1.289648886
1.293126837
1.286415287
1.289911501
1.289993487
1.290053924
1.290091148
1.290101302
1.290074983
1.290010006
1.289914305
1.289802932
1.289697088
1.289618624
1.289571111
1.289552178
1.289552157
1.289561885
1.289579634
1.289610711
1.289661526
1.292336251
1.287274483
1.289875605
1.289935198
1.289980787
1.290010064
1.290019539
1.29000145
1.289953349
1.289881253
1.289795543
1.289712628
1.28965084
1.289613195
1.289597899
1.289597591
1.289605335
1.289619502
1.289643562
1.289683187
1.291653826
1.288333601
1.28983039
1.289860905
1.289884152
1.289899278
1.289904631
1.289896841
1.289871274
1.289832011
1.289781689
1.289730998
1.289691931
1.289669074
1.289660155
1.289660592
1.289665819
1.289674558
1.289688952
1.289712856
1.290845394
1.288159214
1.286796222
1.285046953
1.283582269
1.282775488
1.28225034
1.282708229
1.283423512
1.284878466
1.286313993
1.28824407
1.289777505
1.291672644
1.292663354
1.294086758
1.293894566
1.294416747
1.292723507
1.292557132
1.290376785
1.276685982
1.289823786
1.289933013
1.289963322
1.289964141
1.28994373
1.289919757
1.289903605
1.289894011
1.289867823
1.289809022
1.289707716
1.289583282
1.28946093
1.28937063
1.289334611
1.28936479
1.289444259
1.289570292
1.29991802
1.276622985
1.289832266
1.289943567
1.289974158
1.289973328
1.289950121
1.289923259
1.289903618
1.289890925
1.289863981
1.289807064
1.289712098
1.289595381
1.289480734
1.289397534
1.289365605
1.289395908
1.289471861
1.289593179
1.300057249
1.276484655
1.289839682
1.289954931
1.289985994
1.289982925
1.289955172
1.289923764
1.289898
1.28987963
1.289850929
1.289797789
1.289712551
1.289609438
1.289509711
1.289439107
1.289414899
1.289445622
1.289515433
1.289622031
1.3003321
1.276345598
1.289848279
1.289968456
1.29000078
1.289996248
1.289964177
1.289929379
1.289896468
1.289869593
1.289836494
1.289785957
1.289712525
1.289626233
1.289545377
1.289491482
1.289478668
1.289510848
1.289572918
1.28966046
1.30066447
1.276195607
1.289856133
1.289981946
1.290017259
1.290013383
1.289979001
1.289940209
1.289900516
1.289865695
1.289825986
1.289776495
1.28971304
1.289643527
1.289582823
1.289547571
1.289547035
1.289581922
1.289636035
1.289702775
1.301042685
1.276139793
1.28986333
1.289995192
1.290035753
1.290035818
1.290002134
1.289960889
1.289914684
1.289870262
1.289821804
1.289769718
1.28971181
1.289655588
1.289613031
1.289596572
1.2896092
1.289647961
1.289695166
1.289742155
1.301327236
1.276163208
1.289871697
1.290010152
1.290058167
1.290065015
1.290036037
1.289994548
1.289941708
1.289885217
1.289824372
1.289765327
1.289707468
1.289658938
1.289631392
1.289630673
1.289655669
1.289698456
1.289741486
1.289772637
1.301541005
1.276345203
1.289883194
1.290028404
1.290086026
1.290102521
1.290081178
1.290040432
1.289980833
1.289910766
1.289834165
1.289762565
1.289699662
1.289652187
1.289633961
1.289645004
1.289679772
1.289727217
1.289768653
1.289790257
1.301542678
1.27668744
1.289898775
1.290051132
1.290120267
1.290148061
1.290135672
1.290096517
1.29003019
1.289944616
1.289847083
1.28975711
1.289682722
1.289631655
1.289616544
1.289634576
1.289677086
1.2897296
1.289772413
1.289792005
1.301391537
1.277203477
1.289918012
1.290077776
1.290159664
1.29019952
1.290196208
1.290158499
1.290084867
1.289982813
1.289863706
1.289749489
1.289659047
1.289600381
1.289582385
1.289602545
1.289648761
1.289704898
1.289751794
1.289776708
1.300970198
1.277925965
1.289938033
1.290103817
1.290198311
1.290250428
1.290256058
1.290219122
1.290137459
1.290018496
1.289877424
1.289740683
1.289629917
1.289559774
1.289535386
1.289553946
1.289600914
1.289658964
1.289711912
1.289747436
1.300388309
1.278781514
1.289953682
1.290122313
1.290227558
1.290290891
1.290305353
1.290269363
1.29017991
1.290045923
1.289885647
1.28972839
1.28960018
1.289516538
1.289483696
1.289498134
1.289543588
1.289602385
1.289661446
1.289710855
1.29953466
1.279851094
1.289960083
1.290126328
1.290239131
1.290311398
1.290335174
1.290300632
1.290206253
1.29006042
1.289886254
1.289714639
1.289573645
1.289478377
1.28943737
1.289445965
1.289488052
1.289545655
1.28960996
1.289673235
1.298588103
1.280965528
1.289955307
1.290112316
1.290227854
1.29030515
1.29033699
1.290305757
1.290210808
1.29006025
1.289879922
1.289701992
1.289553434
1.289451138
1.289404382
1.289407865
1.289445144
1.289499671
1.289567201
1.289641736
1.297435358
1.28228418
1.289941118
1.290082065
1.290193795
1.290272827
1.290310034
1.290284167
1.290194372
1.290047563
1.289870365
1.289694477
1.289546248
1.289442857
1.289392807
1.289391956
1.289424007
1.289474902
1.289541215
1.28962248
1.296289911
1.283526541
1.289917641
1.290037505
1.290138986
1.290215353
1.290255
1.290235826
1.290156337
1.290022377
1.289858666
1.289694371
1.289554728
1.289456258
1.289406385
1.289402365
1.28942934
1.289475157
1.289537134
1.289618272
1.29506149
1.284969621
1.289888073
1.28998232
1.29006749
1.290135642
1.290174167
1.290161771
1.290096726
1.289983867
1.289843734
1.28970116
1.289578821
1.289491668
1.289446423
1.289440722
1.28946235
1.289500676
1.289554632
1.289628387
1.29386512
1.286250574
1.289854103
1.289920925
1.289984942
1.290038975
1.290071728
1.290065088
1.290017537
1.28993268
1.289825294
1.289714243
1.289618316
1.289549413
1.289512856
1.289507106
1.289522618
1.289551661
1.289593508
1.289652943
1.292675981
1.287726598
1.289814237
1.289841601
1.289875464
1.289898488
1.289922092
1.289918649
1.289900714
1.289855792
1.289796703
1.289730274
1.289670656
1.289628572
1.289605618
1.289600075
1.289610401
1.289625309
1.289654042
1.289690171
1.291486867
1.287040686
1.286083677
1.282563986
1.281453148
1.279132673
1.279351145
1.278994872
1.280938391
1.282531912
1.285158485
1.287843722
1.290190566
1.293241995
1.294347845
1.297129776
1.295932215
1.297640761
1.293847646
1.294681258
1.290095136
1.272751324
1.289790413
1.28996038
1.290020785
1.290052128
1.290044631
1.290014415
1.289979794
1.289944301
1.289882848
1.289776994
1.289619474
1.289432923
1.289257632
1.289144312
1.289113862
1.289178691
1.289307851
1.289479912
1.304587781
1.272617432
1.289800244
1.289973947
1.290035082
1.29006543
1.290054751
1.290022573
1.289986474
1.289949894
1.289888387
1.289785475
1.289635257
1.289458774
1.2892925
1.289186216
1.289157825
1.289221233
1.289345232
1.2895116
1.304835945
1.272308902
1.289809642
1.28999063
1.290053395
1.290082184
1.290067359
1.290032005
1.289992493
1.289950612
1.289888785