/*--------------------------------*- C++ -*----------------------------------*\
| =========                 |                                                 |
| \\      /  F ield         | OpenFOAM: The Open Source CFD Toolbox           |
|  \\    /   O peration     | Version:  5.x                                   |
|   \\  /    A nd           | Web:      www.OpenFOAM.org                      |
|    \\/     M anipulation  |                                                 |
\*---------------------------------------------------------------------------*/
FoamFile
{
    version     2.0;
    format      ascii;
    class       volVectorField;
    location    "1.2";
    object      U;
}
// * * * * * * * * * * * * * * * * * * * * * * * * * * * * * * * * * * * * * //

dimensions      [0 1 -1 0 0 0 0];

internalField   nonuniform List<vector> 
30538
(
(0.02112095465 0.00118986029 0.004259744934)
(0.03027138341 0.002888063006 0.008004905593)
(0.03891491704 0.003640522601 0.01349607072)
(0.04458233574 0.003249927694 0.01321735852)
(0.03959643943 0.001723340243 0.01239671526)
(0.01701444526 -0.0003730018724 0.006340849388)
(-0.02592171314 -0.002183586713 0.00141945514)
(-0.07383063957 -0.002948546805 -0.004965931198)
(-0.11322049 -0.002384375356 -0.007727974714)
(-0.1327747412 -0.0006280475772 -0.01076267004)
(-0.1254608065 0.001843179327 -0.01199705876)
(-0.09962816979 0.004086937523 -0.0136673057)
(-0.05910351319 0.005692921157 -0.0160052599)
(-0.01763829197 0.006300021649 -0.01722941044)
(0.02458401373 0.005953796901 -0.0197114907)
(0.05477600084 0.00462291767 -0.01851772732)
(0.07859692453 0.003187964827 -0.01879499062)
(0.09385607871 0.001756999928 -0.01346100948)
(0.1036749762 0.0008371727619 -0.01081493435)
(0.102407614 9.834852512e-05 -0.002240470036)
(0.02402893334 0.003453803515 0.004158702526)
(0.03199226298 0.00826814576 0.007711237253)
(0.03918052135 0.01042703713 0.01309078998)
(0.04323455312 0.00920876604 0.01276894162)
(0.03703475015 0.00482562551 0.01203697914)
(0.01424157461 -0.00111327586 0.00612832626)
(-0.02775778984 -0.006255203407 0.001437746471)
(-0.07398452104 -0.008257758345 -0.004796836907)
(-0.1115879676 -0.006641317666 -0.007473794468)
(-0.1297993616 -0.001658803807 -0.01053974035)
(-0.1221445081 0.005174661263 -0.0118556445)
(-0.09691930254 0.01148165889 -0.01359283993)
(-0.05754626291 0.01593495608 -0.01593643441)
(-0.01745132734 0.01771274893 -0.0170864216)
(0.02340496666 0.01673117376 -0.01942174872)
(0.05282650963 0.01311812788 -0.01799125526)
(0.07657955398 0.00904800603 -0.01810333794)
(0.0922007669 0.005087309472 -0.0127138555)
(0.1025206599 0.002393985351 -0.01024317419)
(0.1017340813 0.0003436531409 -0.00198840102)
(0.02945327986 0.00532314294 0.003939000675)
(0.03515596557 0.01257974168 0.007162290593)
(0.03959001089 0.01577402663 0.01231101224)
(0.04063609616 0.01370008126 0.0119711206)
(0.03232032274 0.006980404671 0.01139265222)
(0.00919285506 -0.001844920859 0.005788847355)
(-0.03097444933 -0.009236580922 0.001494570653)
(-0.07412265643 -0.01183814596 -0.00448201873)
(-0.1085789417 -0.009168395834 -0.007010697029)
(-0.1244520749 -0.001865522699 -0.01011569206)
(-0.1162087597 0.008100231247 -0.01154134763)
(-0.09203779618 0.01708529075 -0.01340984931)
(-0.05470827601 0.02367354612 -0.01575532765)
(-0.01707490044 0.02617761125 -0.01679749903)
(0.02134674419 0.02488976078 -0.01886584659)
(0.04936155175 0.01964625237 -0.0170564462)
(0.07293267751 0.01383097304 -0.01687600781)
(0.0891447167 0.007861424543 -0.01141471497)
(0.1003400204 0.003873322684 -0.009235924162)
(0.1004106939 0.0005702330065 -0.001556339918)
(0.03673695098 0.006485971045 0.003625692677)
(0.03931119867 0.01503838493 0.006427193444)
(0.03998591554 0.01868681185 0.01132088632)
(0.03704251026 0.01583913851 0.01098626702)
(0.0260759843 0.007631420309 0.01072193339)
(0.002791699762 -0.002702513528 0.005510909106)
(-0.03483201546 -0.01090272164 0.00179223099)
(-0.07396064439 -0.01330157752 -0.00391701557)
(-0.1045664613 -0.009741644679 -0.006264055279)
(-0.117627342 -0.001184435922 -0.009417299948)
(-0.1087934915 0.01017090911 -0.0109972234)
(-0.08593535216 0.02021231369 -0.01300525752)
(-0.05112777089 0.02776995651 -0.01540863379)
(-0.01658549428 0.03054525302 -0.0163082929)
(0.01879779413 0.02915738888 -0.01809616232)
(0.04502335356 0.02323746705 -0.0158243676)
(0.06825827969 0.01667166578 -0.0153373717)
(0.08514869147 0.009617652303 -0.009793119939)
(0.09739142901 0.004901712882 -0.008012225787)
(0.09850237473 0.0007788008941 -0.001024408021)
(0.04471179918 0.006630061344 0.00321462774)
(0.04370299974 0.01513287084 0.005635684596)
(0.04016054717 0.01853732412 0.01022712277)
(0.03284217527 0.01522450422 0.0100199978)
(0.01924291818 0.006649339663 0.01017340431)
(-0.003892097063 -0.003592614102 0.005477674797)
(-0.0384784857 -0.01105363115 0.002343722267)
(-0.07332508017 -0.01262218629 -0.003073919677)
(-0.100039697 -0.008330780171 -0.005264094977)
(-0.1104084623 0.0003202603056 -0.008467255922)
(-0.1011279895 0.01150455849 -0.01016419346)
(-0.07962532754 0.02089085648 -0.01235243163)
(-0.04741399818 0.02833033672 -0.01479298265)
(-0.0160904428 0.03073410082 -0.01560564104)
(0.01618645883 0.02943082814 -0.01711967641)
(0.04054818786 0.0234992824 -0.01448329743)
(0.06331263634 0.01714958305 -0.01372659042)
(0.08081127069 0.009793474584 -0.008169069438)
(0.09411814767 0.005141062239 -0.006784790279)
(0.09629102914 0.000730854819 -0.0005136278052)
(0.05214739547 0.005528899408 0.00282022817)
(0.04765573043 0.0124879634 0.004833137667)
(0.04005030285 0.01487900472 0.009234669526)
(0.02865911808 0.01158557223 0.009201934447)
(0.0127987981 0.003894844573 0.009951909778)
(-0.009705504203 -0.004531124713 0.005816353575)
(-0.04122860112 -0.01002845547 0.003313637795)
(-0.0720560318 -0.01036339369 -0.00183695205)
(-0.09543858957 -0.005690424588 -0.003923964414)
(-0.1036324813 0.002322076223 -0.007174513301)
(-0.09429226599 0.01206686904 -0.009055894367)
(-0.07406932207 0.01978278769 -0.01135400045)
(-0.04417841319 0.02617966294 -0.01391608481)
(-0.01580630806 0.0278541995 -0.01465670067)
(0.01368358409 0.02663829262 -0.01601382875)
(0.03635362602 0.02115112896 -0.01310653474)
(0.05857285249 0.01546346664 -0.01220918928)
(0.07664717178 0.008525124702 -0.006681176581)
(0.09100846051 0.004490154008 -0.005696287594)
(0.09424595915 0.00042984859 -6.787720826e-05)
(0.05746551186 0.003396412955 0.002457427583)
(0.05025146751 0.007209276725 0.004201940717)
(0.03952192023 0.00821861916 0.008477591438)
(0.02508931191 0.005324014251 0.008763847695)
(0.007862476148 0.0001635795421 0.01008998134)
(-0.01371685527 -0.005096013544 0.006607731232)
(-0.04260665262 -0.007812121898 0.004641572004)
(-0.07027698264 -0.006912885228 -0.0002217345234)
(-0.09108318844 -0.002117553296 -0.002260026552)
(-0.09787603829 0.004489822468 -0.005645324767)
(-0.08882382011 0.01235539628 -0.007679164636)
(-0.06967026287 0.01798316006 -0.01017520281)
(-0.04171958381 0.02294212338 -0.01282986163)
(-0.0157681943 0.02365079607 -0.01360393719)
(0.0114424689 0.02251362485 -0.01486755198)
(0.03265847325 0.01744908394 -0.01187499453)
(0.05438309036 0.01250830919 -0.01092540911)
(0.073041723 0.006251395043 -0.005536291754)
(0.088419419 0.003228191804 -0.004852069055)
(0.0927125724 -0.0001341950252 0.0002440473859)
(0.05967262157 0.0004799000185 0.002224841094)
(0.05101715933 0.0002579764018 0.003809561765)
(0.03872744967 -0.0002912391119 0.008088063278)
(0.02297549271 -0.002239185848 0.008707583339)
(0.005439240806 -0.003861444215 0.01054608214)
(-0.01534252834 -0.005162600893 0.007678443288)
(-0.04251622681 -0.004931982731 0.006231465561)
(-0.06804729452 -0.002831036018 0.001643679458)
(-0.08737925537 0.001635604506 -0.0004186792415)
(-0.09341823175 0.006599889446 -0.003905835529)
(-0.08478963115 0.01250933238 -0.006220509638)
(-0.06659688323 0.0163812644 -0.008861113565)
(-0.04018947182 0.01997136507 -0.01170313056)
(-0.01611286473 0.01983417012 -0.01250343359)
(0.009292226725 0.01869314899 -0.01377099821)
(0.02928926826 0.01390364005 -0.01077460189)
(0.05064593317 0.009606787408 -0.009842976885)
(0.07006603336 0.004039267232 -0.004635742838)
(0.08652192197 0.001991660603 -0.004209213909)
(0.09196408806 -0.0007022522623 0.0004521590677)
(0.0580455855 -0.002530761088 0.00211369677)
(0.04966824781 -0.006995673151 0.003784176681)
(0.03777955286 -0.008790031056 0.00806618426)
(0.02257230013 -0.009561689829 0.009037000925)
(0.00579405406 -0.007311506236 0.01119178443)
(-0.01447752153 -0.004716758485 0.008881984295)
(-0.04095777541 -0.001398590284 0.007895937923)
(-0.06564852808 0.001599949654 0.003583827745)
(-0.0844079989 0.005585773661 0.001524039818)
(-0.09020572147 0.008913846034 -0.002158677249)
(-0.08193910737 0.01322734805 -0.004704096611)
(-0.06440437375 0.01577209164 -0.007668331574)
(-0.03930165913 0.01846662414 -0.01067516406)
(-0.01667945245 0.0177536386 -0.01161210215)
(0.007244354364 0.01677627738 -0.01288967716)
(0.02624018632 0.01220397778 -0.01001137949)
(0.04739125438 0.008536213527 -0.00911846206)
(0.06762792662 0.003354730851 -0.004144266585)
(0.08509723174 0.00177633716 -0.003845891384)
(0.09170841058 -0.0009101956099 0.0005275911217)
(0.05303653944 -0.00520915317 0.002160161636)
(0.04656218097 -0.01323485349 0.004017314038)
(0.03694801994 -0.01618423898 0.008355923881)
(0.02402429966 -0.01569463241 0.009526944147)
(0.008851947072 -0.0101751038 0.01180715044)
(-0.01116709248 -0.004060048055 0.009892263356)
(-0.03804828423 0.001840981201 0.009185245988)
(-0.06311981958 0.005765367045 0.005256823069)
(-0.08218933305 0.00929415137 0.003188061837)
(-0.0880365542 0.01152051627 -0.0005773497902)
(-0.07996745296 0.01465526164 -0.003528686394)
(-0.06290828463 0.01645989554 -0.006729294001)
(-0.03881375652 0.0187877377 -0.009980069968)
(-0.01732389869 0.01814093854 -0.01104394429)
(0.005365983194 0.01784564412 -0.01236816722)
(0.02346554998 0.01371737223 -0.009647515403)
(0.04436512061 0.01072810775 -0.008785603478)
(0.06524845162 0.005402755251 -0.00403498198)
(0.08353510247 0.003438490733 -0.003718729388)
(0.09125549614 -0.0004600822395 0.0004782652203)
(0.04514021826 -0.006889488996 0.002290289282)
(0.04188890221 -0.01743145151 0.00451670605)
(0.03608403667 -0.02096535007 0.008828461263)
(0.0268171562 -0.01961583803 0.01015264351)
(0.01399838061 -0.01171277988 0.01227098992)
(-0.005989573161 -0.003330688176 0.01064439365)
(-0.03401012291 0.004596852337 0.01011707291)
(-0.06037933906 0.009180265025 0.00649266054)
(-0.08031701587 0.01292290747 0.004519590583)
(-0.0864426566 0.01432656587 0.0005418594699)
(-0.07847079955 0.0168552483 -0.002701822205)
(-0.06150533157 0.01831238388 -0.00623145834)
(-0.0381361176 0.02085958417 -0.009673265572)
(-0.01737168126 0.02088048004 -0.01097915433)
(0.004112928474 0.02179421677 -0.01236824869)
(0.02120253231 0.01842374644 -0.009842855181)
(0.04148410905 0.01623873804 -0.009004554458)
(0.06242656055 0.01036479621 -0.004418872083)
(0.08097762778 0.007143955525 -0.003932584258)
(0.08950121177 0.0007834879401 0.0002952551069)
(0.03599342103 -0.007492018779 0.002484867179)
(0.0365972836 -0.01884312978 0.005042293566)
(0.03544820891 -0.02280696865 0.009292017588)
(0.03055063371 -0.0213206198 0.01051245563)
(0.02033805026 -0.0123963888 0.012373626)
(0.0003558459374 -0.003305238973 0.01081971823)
(-0.02919941145 0.005619030865 0.01029642559)
(-0.05722393075 0.010980262 0.006966885715)
(-0.07854153108 0.01531189416 0.004938934365)
(-0.08527929291 0.01668136224 0.001040712208)
(-0.07717229287 0.01917237721 -0.002455813927)
(-0.06010736197 0.0209041777 -0.006107248406)
(-0.03702128799 0.02414379963 -0.009719810295)
(-0.01670030698 0.02524321364 -0.01123548066)
(0.003619877816 0.02762583892 -0.01271368356)
(0.0195250914 0.02526829038 -0.01044351465)
(0.03863883484 0.0239156012 -0.009613676919)
(0.05876698433 0.01723071659 -0.00520166925)
(0.07677987033 0.01217362227 -0.004381839123)
(0.08554437196 0.002562267562 -2.910212042e-05)
(0.02667009849 -0.00686130222 0.002608553192)
(0.03105369135 -0.01793126229 0.005503556549)
(0.03436983248 -0.02179885157 0.009554813635)
(0.03415714503 -0.02121342663 0.01065902518)
(0.02670461142 -0.01257674123 0.01204732571)
(0.00674409124 -0.00478726313 0.01050493422)
(-0.02390223862 0.004484153314 0.009905051615)
(-0.05351667272 0.01036532927 0.006755839687)
(-0.07628467659 0.01584857319 0.004772207742)
(-0.08372704579 0.01806032671 0.0009749449047)
(-0.07551313542 0.02135574382 -0.002514528901)
(-0.05802575931 0.02382362365 -0.006250310201)
(-0.03510002543 0.02806682651 -0.009920740088)
(-0.01495608995 0.03020495542 -0.01167815234)
(0.004112618246 0.03397567279 -0.01331275088)
(0.01856705329 0.03262824367 -0.01136868263)
(0.03577264568 0.03201515357 -0.01059808184)
(0.05407416483 0.02448017529 -0.006311426002)
(0.0706191447 0.01744627968 -0.005082487999)
(0.07897132918 0.004455032657 -0.0004430381494)
(0.01859694152 -0.005580387249 0.002625355639)
(0.02603441542 -0.01541258483 0.00560777245)
(0.03315192138 -0.01921764949 0.009352656007)
(0.03705034087 -0.01998196316 0.01021297691)
(0.03192387661 -0.01375744477 0.01112456806)
(0.0124174685 -0.008525914386 0.009518621274)
(-0.01847306059 -0.0001245234792 0.008709590732)
(-0.04917569551 0.00630163309 0.005801349373)
(-0.07310271813 0.01344528892 0.003859686859)
(-0.08139884761 0.01775044669 0.0004208154633)
(-0.07312772786 0.02292662177 -0.002875565557)
(-0.05539995559 0.02679206335 -0.00641328802)
(-0.03255670831 0.03225075578 -0.009970267511)
(-0.01257035862 0.03524439631 -0.01190121453)
(0.005304134661 0.03985155998 -0.01369290882)
(0.01812593603 0.03916148094 -0.01220992901)
(0.03285176879 0.03898835845 -0.01153112571)
(0.04842152568 0.03067627132 -0.007477038433)
(0.06263041294 0.02190720887 -0.005780420838)
(0.06994322007 0.006070217575 -0.0009078663939)
(0.01194072954 -0.003855802458 0.002485325632)
(0.02141113651 -0.01218013438 0.0054457193)
(0.03115757944 -0.0159367634 0.008690708154)
(0.03800104831 -0.01899088027 0.009348402207)
(0.03478792439 -0.01647150136 0.009777780914)
(0.01638695008 -0.01490997064 0.008176104326)
(-0.01340391235 -0.008133164508 0.007222848521)
(-0.043911997 -0.001542747947 0.00452176329)
(-0.06819537744 0.007958440396 0.002725607871)
(-0.07704044099 0.01542990269 -0.0003043428606)
(-0.06915269428 0.02386225977 -0.003182796081)
(-0.05147686314 0.02975407378 -0.006386875022)
(-0.02918138805 0.03670562023 -0.00970746435)
(-0.009634454793 0.04011950563 -0.01172698524)
(0.00684454684 0.04485855461 -0.0136822599)
(0.01794293345 0.04401822171 -0.01267219972)
(0.02975492666 0.04369517757 -0.01219128227)
(0.04196227938 0.03459051937 -0.008404008506)
(0.05323347222 0.02463836161 -0.006348077041)
(0.05906668385 0.007033529548 -0.001294895079)
(0.00735850421 -0.002274182337 0.002223152121)
(0.01748678202 -0.00912772437 0.004824252147)
(0.02835746001 -0.01338376028 0.00752980254)
(0.03666592971 -0.01918891786 0.007904826673)
(0.03480829186 -0.02133972009 0.008033936275)
(0.01832350812 -0.02379574158 0.006454525171)
(-0.009007079439 -0.01934301916 0.005411554816)
(-0.03779223245 -0.01267396528 0.003004592986)
(-0.06111281813 -0.0005977662833 0.001434611455)
(-0.0701836771 0.01116219106 -0.001016247689)
(-0.06303427906 0.02388519454 -0.003312391979)
(-0.04637020429 0.03280301802 -0.005987960572)
(-0.02528777783 0.04142132612 -0.00887484171)
(-0.006856660773 0.04498591083 -0.01086292177)
(0.008024670364 0.04905811118 -0.0128418081)
(0.0172894368 0.04719606176 -0.01232097562)
(0.02617258374 0.04597047792 -0.01201650194)
(0.0349208592 0.03605286872 -0.008695490526)
(0.04316792766 0.02551719719 -0.006422738317)
(0.04741280659 0.007309461782 -0.001543689209)
(0.00397180818 -0.000907053021 0.001815252039)
(0.01354598881 -0.006794396374 0.004005026294)
(0.0240751881 -0.01173561217 0.006043776424)
(0.03238800033 -0.020722076 0.006277972953)
(0.03154863197 -0.02747160933 0.006180032139)
(0.01781547609 -0.03413340327 0.004810063163)
(-0.005530730919 -0.03204493651 0.003785873113)
(-0.03065975951 -0.02546232671 0.001798387255)
(-0.05135688087 -0.01066951926 0.0005002611195)
(-0.05977238837 0.005657985697 -0.001346839159)
(-0.05389910364 0.02346338968 -0.003105016756)
(-0.03913305539 0.03593914956 -0.005171411689)
(-0.02061730125 0.04643247475 -0.00759079062)
(-0.004279665811 0.0499181343 -0.009382852102)
(0.008376519527 0.05269601593 -0.01126117087)
(0.01574743723 0.04904120713 -0.01107013754)
(0.02186902338 0.04628872868 -0.01096574491)
(0.02747908835 0.03552112609 -0.008170796786)
(0.0329450154 0.02491335314 -0.005980230809)
(0.03570378171 0.007015538512 -0.001554850293)
(0.002001143448 0.0001120890135 0.00136903598)
(0.009819165627 -0.005157177857 0.002918904722)
(0.01855314276 -0.01103606569 0.004398989042)
(0.02557245894 -0.02285924829 0.004444524548)
(0.02535887226 -0.03370688899 0.004327788698)
(0.01511178632 -0.0441807655 0.003176922218)
(-0.002872673214 -0.04452104516 0.002336351887)
(-0.02268739506 -0.0380624197 0.0007860109433)
(-0.03913182545 -0.02080517393 -0.0001175319892)
(-0.04610224401 -0.0001364778516 -0.001380382907)
(-0.0416822032 0.02264058526 -0.002526852248)
(-0.03017816132 0.03883538879 -0.004000205949)
(-0.01544316834 0.05128339218 -0.0057559783)
(-0.002463877109 0.05467170139 -0.007215898528)
(0.007384895958 0.0560219067 -0.008735420988)
(0.01274990162 0.05037369478 -0.008796090573)
(0.01661045513 0.04582991856 -0.008776631744)
(0.01978804287 0.03420319553 -0.006698189785)
(0.02305576013 0.02372064495 -0.004835556753)
(0.02467593254 0.006520463982 -0.001342812157)
(0.0004733837535 0.0009374185549 0.0008151751031)
(0.005636335535 -0.003712470724 0.001815477213)
(0.01158424362 -0.01002823032 0.002628682731)
(0.01638557678 -0.02406531662 0.002669163527)
(0.01650332705 -0.03787599098 0.002496688704)
(0.01019665972 -0.05156771766 0.001804360254)
(-0.001190426263 -0.05398488827 0.001185274586)
(-0.01388144419 -0.04787660472 0.0002733589935)
(-0.0245463427 -0.02868490004 -0.0002999582576)
(-0.02909737334 -0.00465087818 -0.0009799790983)
(-0.02641333246 0.02200340136 -0.001658101226)
(-0.01894355251 0.0411522095 -0.002492929917)
(-0.009474591586 0.05518427998 -0.003617651018)
(-0.0009726469348 0.05833170868 -0.004544574929)
(0.005318388184 0.05832261584 -0.005618033168)
(0.008541733675 0.05076348182 -0.005735808692)
(0.01045477032 0.04471426694 -0.0057762814)
(0.0118622115 0.03245224529 -0.004444137282)
(0.0134397086 0.02234450858 -0.003201605914)
(0.01418408251 0.005973725089 -0.0009033465663)
(0.0001118455371 0.001664339064 0.0002973482124)
(0.00210938371 -0.002461323465 0.0005781682316)
(0.004269120585 -0.00920836559 0.0009050169161)
(0.005986923164 -0.02484143524 0.0008514688179)
(0.005995365908 -0.04086739444 0.0008395027992)
(0.003756298764 -0.05672733299 0.000530440511)
(-0.0002946481428 -0.06068758007 0.0003441914053)
(-0.004879898407 -0.05470630115 -1.928694121e-05)
(-0.008667618032 -0.0342014902 -0.0001649307056)
(-0.01035007249 -0.007721773111 -0.0004072436243)
(-0.009342846661 0.02168046901 -0.0005844207372)
(-0.006716157078 0.04300755954 -0.000891144827)
(-0.003265474555 0.05814458902 -0.001230412188)
(-0.0002092985896 0.06120376387 -0.00158676694)
(0.002057258611 0.05995436214 -0.001958130482)
(0.0031193796 0.05084367456 -0.002057752155)
(0.003614662402 0.04343339987 -0.002056767434)
(0.003889053325 0.03080381396 -0.001625884165)
(0.004296584244 0.02095412186 -0.001142274749)
(0.004511738463 0.00550850051 -0.0003448863157)
(0.03767659556 0.0009992403995 0.006027157956)
(0.04265011001 0.002325475688 0.0216558712)
(0.04598661014 0.002858241914 0.02671340132)
(0.04315216994 0.002389719137 0.03278709532)
(0.03036661612 0.001036227968 0.0231274393)
(0.002296577812 -0.0007772309057 0.01437874007)
(-0.04111322049 -0.00214416385 -0.003432967282)
(-0.08610528901 -0.002626628853 -0.01274891383)
(-0.1209655364 -0.001902878006 -0.02195667902)
(-0.1384805755 -0.0002124395991 -0.02373802798)
(-0.1293727382 0.002096285037 -0.02581262886)
(-0.1049471714 0.004211297882 -0.02711158418)
(-0.06383210933 0.005802557075 -0.03004926324)
(-0.02255929386 0.006543716284 -0.03379745921)
(0.02291410478 0.006472396973 -0.03620706147)
(0.056066479 0.005595339581 -0.03767477899)
(0.08540420219 0.004474464755 -0.03426329796)
(0.1044774201 0.003155626881 -0.02863968306)
(0.1188541217 0.001911320326 -0.01882498527)
(0.1197900591 0.0005754218452 -0.007101938606)
(0.04005331406 0.002848098857 0.005682096906)
(0.04396120878 0.006664943675 0.02084896579)
(0.04603842494 0.00815005394 0.02549679594)
(0.04186539935 0.006819500036 0.03152617233)
(0.02812012171 0.002902491377 0.02201225447)
(3.007740322e-05 -0.002164152652 0.01379692374)
(-0.04244039767 -0.006109594971 -0.003522666796)
(-0.08594995591 -0.007338484206 -0.01233995857)
(-0.1192659405 -0.005286708634 -0.02132487509)
(-0.1356647288 -0.0004486636288 -0.02313617364)
(-0.1262614778 0.006009434537 -0.02542145023)
(-0.1023418298 0.01194237116 -0.02697141411)
(-0.06219051349 0.01637673349 -0.02997076588)
(-0.02208134867 0.01848496592 -0.03364429567)
(0.02225333635 0.01828002123 -0.03567316375)
(0.05466176547 0.01584360702 -0.03662882048)
(0.0836906053 0.012642569 -0.03271271126)
(0.1026745032 0.008937678266 -0.02700266504)
(0.1170418137 0.005378588767 -0.01749786988)
(0.1180206181 0.001641540247 -0.006551445018)
(0.04444177705 0.004313914196 0.005051457478)
(0.04637145061 0.0101351328 0.01929188345)
(0.04609846143 0.01237999734 0.02327803524)
(0.03944227323 0.01027954875 0.02921326001)
(0.02402080915 0.004464656878 0.0201573336)
(-0.004078945142 -0.003012515046 0.01286392275)
(-0.04478074574 -0.008559152355 -0.003416744921)
(-0.08554932415 -0.01016779962 -0.01141708235)
(-0.1161122648 -0.006876353366 -0.02003330184)
(-0.1305209149 0.0002519787672 -0.02187007658)
(-0.1206461285 0.009712338901 -0.02459781016)
(-0.09763635245 0.01819666153 -0.02653516758)
(-0.05921497496 0.02467309351 -0.02973301201)
(-0.02120818927 0.02764130163 -0.0332354721)
(0.02106096968 0.027379476 -0.03468215109)
(0.05209782434 0.02373284018 -0.0346906558)
(0.08053372196 0.01904740502 -0.02999586243)
(0.09933417397 0.0133785833 -0.0240632047)
(0.1136962209 0.008108615415 -0.01519130268)
(0.1147699666 0.00240233425 -0.005542941467)
(0.05031071189 0.005112513977 0.004117851891)
(0.04961426791 0.01212862781 0.01724722915)
(0.04614261946 0.01469598243 0.02030279057)
(0.03627200903 0.0120896545 0.02634047059)
(0.01873457601 0.00529793957 0.01790522434)
(-0.009182468079 -0.003282908653 0.01202536217)
(-0.04751120147 -0.00927767611 -0.003034220412)
(-0.08479490233 -0.01061952472 -0.009980723299)
(-0.1119252561 -0.006422898848 -0.01813449183)
(-0.1239741966 0.00193915005 -0.02002638326)
(-0.113620636 0.01277551994 -0.02316749455)
(-0.09179314341 0.0222285501 -0.02562577107)
(-0.05552484341 0.02960386466 -0.02903000008)
(-0.02015791512 0.03281233906 -0.0324264798)
(0.01950810876 0.03245734691 -0.03313912246)
(0.04878941454 0.0281042176 -0.03218698207)
(0.07637905396 0.02262383877 -0.02651459539)
(0.09492582305 0.01575389355 -0.02044634852)
(0.109278998 0.009562611238 -0.0122985862)
(0.1105061453 0.002761630352 -0.004350352456)
(0.05666586391 0.005103466032 0.003088658803)
(0.05308591719 0.0120942459 0.01491339239)
(0.04606700453 0.01454984599 0.01717604168)
(0.03279828914 0.01179880271 0.0234083533)
(0.01316367274 0.005171587035 0.01602137848)
(-0.01439094208 -0.003001091056 0.01172204822)
(-0.04998480136 -0.008146729713 -0.001839569764)
(-0.08356925435 -0.008658695277 -0.007766855497)
(-0.1072624528 -0.003881029583 -0.01554891511)
(-0.1169878082 0.004573589291 -0.01745493263)
(-0.1063480265 0.01518677109 -0.02117038813)
(-0.08577068996 0.02404039352 -0.02405752522)
(-0.05174962819 0.03117041227 -0.02785186738)
(-0.01918226472 0.03388035568 -0.03110471587)
(0.01774994752 0.03337110243 -0.03126088814)
(0.04516206265 0.02863707158 -0.02935370397)
(0.0718081269 0.02306535436 -0.02295217765)
(0.09008011574 0.01567782495 -0.01670523434)
(0.1045066589 0.009546093017 -0.009445570667)
(0.1059618281 0.002550265291 -0.003113363424)
(0.06249248824 0.00409425869 0.002037727003)
(0.05623187259 0.009756094844 0.01272499498)
(0.04592542136 0.01154013735 0.01430937977)
(0.02964008296 0.009176937445 0.0210628303)
(0.008277905832 0.003720564048 0.01487807077)
(-0.01860923686 -0.002382536558 0.01238946093)
(-0.05152987333 -0.005640437676 0.0002655001942)
(-0.08181677197 -0.004935270164 -0.004744367655)
(-0.102596933 2.18833643e-05 -0.01216515501)
(-0.110527818 0.00767418522 -0.01426399378)
(-0.09990029379 0.01678916303 -0.01835285726)
(-0.08052219235 0.02392847078 -0.0217859588)
(-0.04858723234 0.02990992423 -0.02589884802)
(-0.0185978835 0.03165952653 -0.0292291534)
(0.01581701541 0.03090113684 -0.0289142353)
(0.04151621826 0.02607495435 -0.02647415414)
(0.06721940289 0.02075945593 -0.01951071304)
(0.08534650815 0.01350330295 -0.01333793042)
(0.09999289081 0.008166859365 -0.006840838901)
(0.1018577345 0.001872027914 -0.002078705767)
(0.06647586046 0.002268464481 0.001243538648)
(0.05829567569 0.005260265074 0.01097385615)
(0.04565014493 0.00603289194 0.01231913373)
(0.02726707674 0.004377901649 0.01967210447)
(0.004992755164 0.001287093917 0.01493106035)
(-0.02102029173 -0.00156175055 0.01409415182)
(-0.05180638031 -0.002261120542 0.003380360547)
(-0.07959865802 -0.0002974276595 -0.0008114013394)
(-0.09837021617 0.004548563788 -0.008113735671)
(-0.1051600768 0.01069446473 -0.01045403872)
(-0.09489481161 0.0177483371 -0.01515382522)
(-0.07651508818 0.0227197463 -0.01897537076)
(-0.04630395267 0.02714096358 -0.02356553351)
(-0.0184808888 0.02772992941 -0.02696604019)
(0.01381462241 0.02675997705 -0.02649604144)
(0.03799881266 0.02184400385 -0.02371521824)
(0.06291779138 0.01698079443 -0.01660097251)
(0.08115792698 0.01011722226 -0.01054283881)
(0.09628062072 0.006058074077 -0.004828031751)
(0.09877231919 0.0008572754387 -0.001235329851)
(0.06784262872 -0.0001706371369 0.0007904675813)
(0.05884810342 -0.0005372687627 0.01016100638)
(0.04530403706 -0.00107585665 0.0116191662)
(0.02628421662 -0.001720623748 0.01972164217)
(0.004076316632 -0.001783546877 0.0162434888)
(-0.02112720858 -0.0008669462769 0.01675561796)
(-0.05065308536 0.001229690291 0.007406801222)
(-0.07702816436 0.004390406718 0.003825866315)
(-0.09484188157 0.00883424389 -0.003328793394)
(-0.1012188253 0.01322375462 -0.0062463865)
(-0.09142944157 0.01816809666 -0.01145905313)
(-0.07389553686 0.02113699349 -0.01602372889)
(-0.04506320374 0.02405265575 -0.02098256966)
(-0.01886914504 0.02359583488 -0.02469460416)
(0.01166247576 0.02243076151 -0.02419642455)
(0.03460411821 0.01741231062 -0.02141625424)
(0.05891774891 0.0130174744 -0.01425269419)
(0.07760181558 0.006663347185 -0.008475970115)
(0.09344923727 0.003904490379 -0.003322238152)
(0.09688274622 -0.0001599184789 -0.0006725594625)
(0.06602778832 -0.002652107187 0.0008023249138)
(0.05762090681 -0.006599935067 0.01028020316)
(0.04483154481 -0.0082810562 0.01217570574)
(0.0267669111 -0.008001739729 0.02087291047)
(0.005591364788 -0.004935806333 0.01837303432)
(-0.01889956508 -0.0005475574989 0.01987882135)
(-0.04810303088 0.00418297901 0.01161142491)
(-0.07424133584 0.008449834915 0.008617600108)
(-0.09213011499 0.01244786116 0.001391282003)
(-0.09858121466 0.0152400152 -0.002048624681)
(-0.08932665714 0.01834612267 -0.00815628339)
(-0.07237104238 0.01980961817 -0.01335146965)
(-0.04458070586 0.02172178039 -0.01887052484)
(-0.01963537676 0.02049537372 -0.02280873876)
(0.009441826137 0.01941666531 -0.02244596795)
(0.03134237401 0.01431731025 -0.01970163397)
(0.05530408472 0.01052721095 -0.01271772523)
(0.07468848333 0.004474967785 -0.007194424613)
(0.09146592528 0.002703893071 -0.002497697951)
(0.09604340826 -0.0008576875211 -0.000344068613)
(0.06138652652 -0.004872554337 0.001256310797)
(0.05484662002 -0.01184013366 0.01133682331)
(0.04434650078 -0.01473454278 0.01394324879)
(0.02864883767 -0.01356781644 0.02301521623)
(0.009336457252 -0.008132555192 0.02117840979)
(-0.01469025525 -0.0007393552716 0.02315142762)
(-0.04429996189 0.00603708412 0.01577161274)
(-0.07119977767 0.01127958665 0.01294621976)
(-0.09003485242 0.01499274357 0.00580563126)
(-0.09706667162 0.01665664815 0.001499313475)
(-0.08822184825 0.01845866864 -0.005390402878)
(-0.07153464037 0.01917439257 -0.01153012705)
(-0.0445918543 0.02067270107 -0.01754644539)
(-0.02051262568 0.01931010605 -0.02185860724)
(0.007287395282 0.01881299796 -0.02172527008)
(0.02831378648 0.01401265647 -0.01917041878)
(0.05194213435 0.01092828665 -0.01238907107)
(0.07204032111 0.004858908561 -0.007051141299)
(0.08969126217 0.003266278616 -0.002450855783)
(0.09549706549 -0.0009020916112 -0.0003430052232)
(0.05432679006 -0.006271091997 0.00199718014)
(0.05064072969 -0.01548017739 0.01291685552)
(0.04365362089 -0.01918326617 0.01621747658)
(0.03143395561 -0.01773442065 0.02536510789)
(0.01464828494 -0.01063247595 0.02358815484)
(-0.008890441281 -0.001581521503 0.02569139122)
(-0.03960822967 0.006692059118 0.0186793184)
(-0.06791890751 0.01242080258 0.01600605973)
(-0.08831970331 0.01625398984 0.008739788301)
(-0.0961476462 0.01740258558 0.003870527506)
(-0.08756483099 0.0188893519 -0.00394754206)
(-0.0708428126 0.0194796885 -0.01073283021)
(-0.0445029509 0.02133761751 -0.01737463565)
(-0.02097093014 0.02048751957 -0.02200546936)
(0.005682471601 0.02111962565 -0.02224460581)
(0.02575701934 0.01689404283 -0.01989092318)
(0.04881040327 0.0146460968 -0.01338697879)
(0.06923685586 0.008126298338 -0.008068506334)
(0.08740352568 0.005872791705 -0.003259821728)
(0.09428990569 -0.0001848104953 -0.0006528628629)
(0.04614031204 -0.006885709012 0.002933239413)
(0.04572124684 -0.01696462103 0.0146820333)
(0.04279958568 -0.0214194811 0.01872351263)
(0.03469259797 -0.0203512056 0.02739773227)
(0.02074199948 -0.01281194013 0.02561923706)
(-0.002446109349 -0.003578812088 0.0271470644)
(-0.03439670223 0.005206916229 0.02053202703)
(-0.06443970234 0.01147012046 0.01752650583)
(-0.08650994017 0.01578818646 0.01030151252)
(-0.09522006663 0.01750196919 0.004769773401)
(-0.08677339098 0.01952044985 -0.003509397318)