/*--------------------------------*- C++ -*----------------------------------*\
| =========                 |                                                 |
| \\      /  F ield         | OpenFOAM: The Open Source CFD Toolbox           |
|  \\    /   O peration     | Version:  5.x                                   |
|   \\  /    A nd           | Web:      www.OpenFOAM.org                      |
|    \\/     M anipulation  |                                                 |
\*---------------------------------------------------------------------------*/
FoamFile
{
    version     2.0;
    format      ascii;
    class       volScalarField;
    location    "0.8";
    object      p;
}
// * * * * * * * * * * * * * * * * * * * * * * * * * * * * * * * * * * * * * //

dimensions      [1 -1 -2 0 0 0 0];

internalField   nonuniform List<scalar> 
30538
(
101308.1759
101313.0712
101305.6966
101291.3954
101275.7202
101269.0948
101273.1771
101284.6529
101299.5233
101312.6384
101322.2706
101328.2784
101332.1525
101334.8265
101334.0702
101326.251
101310.974
101295.7679
101287.4762
101291.8606
101307.3441
101311.2716
101303.6622
101289.5012
101274.1104
101267.7653
101272.1442
101283.9297
101298.9712
101312.2379
101322.0772
101328.3024
101332.3925
101335.0713
101334.1733
101326.3641
101311.6073
101297.0698
101288.9704
101292.6813
101305.6362
101307.6075
101299.5493
101285.8148
101271.2682
101265.5653
101270.4198
101282.66
101297.9468
101311.458
101321.7241
101328.3909
101332.8517
101335.5128
101334.3677
101326.7488
101313.0858
101299.8029
101291.9528
101294.2716
101303.0688
101302.1253
101293.4305
101280.5204
101267.5958
101262.9948
101268.3941
101281.0144
101296.5074
101310.3414
101321.2823
101328.6153
101333.5026
101336.144
101334.7628
101327.7207
101315.7018
101304.103
101296.4214
101296.5376
101299.9164
101295.2497
101285.8316
101274.038
101263.4182
101260.3004
101266.2711
101279.0891
101294.7168
101309.0029
101320.84
101329.077
101334.4428
101337.0734
101335.6456
101329.5667
101319.6818
101309.8776
101302.0512
101299.25
101296.5451
101287.9288
101277.7162
101267.1688
101259.121
101257.4844
101264.0528
101276.9533
101292.6929
101307.5811
101320.4165
101329.6458
101335.5511
101338.3305
101337.3259
101332.421
101324.8507
101316.5248
101308.2264
101302.1066
101293.5754
101281.3862
101270.2648
101260.72
101254.8364
101254.5055
101261.5815
101274.594
101290.5493
101306.1086
101319.8965
101330.1066
101336.7045
101339.863
101339.5929
101336.24
101330.6192
101323.195
101314.149
101304.7432
101291.5603
101276.8167
101264.8248
101255.677
101251.1992
101251.8128
101259.125
101272.1111
101288.3326
101304.4472
101318.9562
101329.9713
101337.3216
101341.168
101341.8956
101340.0404
101335.9002
101328.9503
101318.9074
101306.768
101290.8973
101275.0999
101262.7189
101253.6251
101249.5142
101250.3304
101257.5052
101270.2104
101286.2458
101302.478
101317.1649
101328.6482
101336.7322
101341.4978
101343.3458
101342.6757
101339.4202
101332.6191
101321.7624
101307.903
101291.5941
101276.4352
101264.2639
101255.1052
101250.6109
101251.0132
101257.5599
101269.3845
101284.4868
101300.0635
101314.2913
101325.775
101334.4552
101340.2277
101343.1831
101343.4143
101340.5904
101333.745
101322.4141
101308.0759
101293.3265
101280.314
101269.1041
101259.9884
101254.811
101254.3405
101259.699
101269.904
101283.2519
101297.2617
101310.3916
101321.4621
101330.4744
101337.1019
101340.9789
101341.813
101339.1712
101332.3246
101321.0897
101307.4391
101295.5216
101285.5774
101275.9174
101267.1851
101261.3962
101259.8586
101263.6128
101271.6255
101282.4591
101294.2631
101305.7999
101316.1859
101325.331
101332.6136
101337.1714
101338.311
101335.6526
101328.8872
101318.2813
101306.229
101297.6054
101290.7215
101282.8357
101274.9409
101268.9938
101266.5581
101268.6167
101274.0775
101282.1201
101291.3913
101301.1741
101310.7992
101319.9629
101327.7196
101332.7639
101333.9272
101331.0175
101324.3378
101314.671
101304.7244
101299.043
101294.5337
101288.3383
101281.6074
101276.1091
101273.2792
101273.8775
101276.9171
101282.1789
101289.0167
101297.1751
101306.0946
101315.2321
101323.2876
101328.5567
101329.4983
101326.1162
101319.4927
101310.8816
101303.163
101299.6668
101296.6005
101291.8467
101286.5228
101282.0122
101279.3249
101278.8998
101279.8348
101282.7066
101287.4527
101294.2508
101302.5995
101311.7046
101319.9088
101325.1691
101325.6636
101321.558
101314.8294
101307.2443
101301.6764
101299.5152
101296.9408
101293.3473
101289.6216
101286.5093
101284.4285
101283.4675
101282.9457
101283.9531
101287.0589
101292.7399
101300.5877
101309.5215
101317.5238
101322.4419
101322.3269
101317.372
101310.5286
101303.9971
101300.3517
101299.0762
101296.5819
101293.8617
101291.5719
101289.9178
101288.6902
101287.5221
101286.2398
101286.0786
101288.0333
101292.6344
101299.6744
101307.8743
101315.2129
101319.501
101318.8367
101313.5498
101306.9728
101301.4729
101299.3641
101298.7778
101296.4332
101294.4499
101293.2623
101292.7478
101292.2339
101291.2139
101289.7931
101289.1402
101290.3284
101293.8231
101299.4479
101306.1446
101312.1469
101315.5551
101314.74
101309.9346
101304.2485
101299.9774
101298.9212
101298.8906
101297.0857
101295.8441
101295.3756
101295.4771
101295.4009
101294.7597
101293.7022
101293.1135
101293.7297
101295.8848
101299.5741
101303.9762
101307.897
101310.1264
101309.46
101306.0913
101302.1763
101299.4597
101299.0451
101299.4678
101298.695
101298.2497
101298.1827
101298.3618
101298.4332
101298.2177
101297.8226
101297.5794
101297.7708
101298.5192
101299.8868
101301.4906
101302.9143
101303.7037
101303.4233
101302.0886
101300.5924
101299.6122
101299.5661
101303.9271
101305.2591
101298.0654
101287.54
101277.643
101275.2437
101280.5899
101289.5358
101300.1546
101310.9392
101321.1924
101329.0883
101333.6078
101333.8992
101328.6375
101319.1723
101306.8974
101296.4842
101291.6728
101295.0659
101303.4046
101304.0264
101296.7083
101286.2418
101276.4957
101274.1356
101279.4731
101288.6038
101299.48
101310.4492
101320.9224
101328.9899
101333.5727
101333.9211
101328.8036
101319.4659
101307.4364
101297.2578
101292.4708
101295.4506
101302.3323
101301.5344
101293.94
101283.6745
101274.4116
101272.2206
101277.5383
101286.9284
101298.2055
101309.5068
101320.3407
101328.6974
101333.4363
101333.9569
101329.1864
101320.2268
101308.7672
101299.048
101294.1828
101296.2521
101300.7299
101297.8207
101289.812
101279.9616
101271.669
101269.8832
101275.2129
101284.8099
101296.4867
101308.1726
101319.4503
101328.134
101333.2104
101334.0742
101329.8933
101321.6851
101311.1822
101302.0996
101296.9349
101297.5022
101298.6979
101293.2397
101284.6527
101275.4107
101268.4989
101267.3816
101272.8002
101282.5071
101294.5033
101306.572
101318.3253
101327.3852
101332.8168
101334.2954
101331.0658
101324.0492
101314.8608
101306.4897
101300.7309
101299.1673
101296.4859
101288.3349
101279.0559
101270.5711
101265.1854
101264.8233
101270.3816
101280.158
101292.399
101304.8248
101316.9876
101326.5196
101332.51
101334.7639
101332.8286
101327.3015
101319.6014
101311.8595
101305.2354
101301.0813
101294.4607
101283.8196
101273.8573
101265.9309
101261.8674
101262.2304
101267.9328
101277.8061
101290.248
101302.9803
101315.4917
101325.4766
101332.1668
101335.3601
101334.9017
101331.0791
101324.8588
101317.5584
101309.8433
101302.986
101292.9924
101280.4755
101269.9224
101262.3623
101259.1328
101259.957
101265.6705
101275.5194
101288.0819
101301.0091
101313.765
101324.1341
101331.5733
101335.8115
101336.7883
101334.5925
101329.7234
101322.6052
101313.8467
101304.6035
101292.358
101278.99
101268.2837
101260.7719
101257.7795
101258.6584
101264.1224
101273.6807
101285.9667
101298.9774
101311.6969
101322.3036
101330.4061
101335.6386
101337.9106
101337.0352
101333.1219
101326.1338
101316.5734
101305.6733
101292.6062
101279.5219
101269.0717
101261.6028
101258.4119
101258.9483
101263.8283
101272.6554
101284.2042
101296.8753
101309.1919
101319.7943
101328.3433
101334.3838
101337.6474
101337.6894
101334.3824
101327.5822
101317.6633
101306.0834
101293.6149
101281.8254
101272.054
101264.731
101261.1221
101261.0414
101265.0359
101272.6849
101283.0531
101294.7485
101306.3031
101316.6186
101325.339
101331.8815
101335.7167
101336.2486
101333.3268
101326.8115
101317.1107
101305.8649
101295.0326
101285.1775
101276.4038
101269.3444
101265.3051
101264.5513
101267.5327
101273.7292
101282.5021
101292.7289
101303.2233
101313.035
101321.7166
101328.4611
101332.4598
101333.1096
101330.309
101324.1846
101315.2124
101305.1517
101296.4405
101288.6213
101280.9174
101274.2667
101270.0055
101268.7664
101270.8617
101275.4994
101282.5018
101290.9978
101300.3043
101309.4931
101318.0147
101324.7264
101328.5878
101329.0287
101326.131
101320.4067
101312.4854
101304.129
101297.4889
101291.2593
101284.5435
101278.5249
101274.4622
101273.1078
101274.5632
101277.7629
101283.0096
101289.7879
101297.8477
101306.4108
101314.6766
101321.1715
101324.6698
101324.682
101321.5379
101316.168
101309.4351
101302.9809
101298.0261
101292.7579
101286.917
101281.7065
101278.3136
101277.2729
101278.351
101280.4057
101284.0554
101289.2607
101296.1552
101304.0862
101311.9834
101318.142
101321.1621
101320.5281
101317.0185
101311.9601
101306.4229
101301.853
101298.0564
101293.3161
101288.2216
101284.0688
101281.6232
101281.1284
101282.0601
101283.3312
101285.6548
101289.5288
101295.3777
101302.638
101310.105
101315.7022
101318.0794
101316.7164
101312.8104
101308.1024
101303.7211
101300.8286
101297.9619
101293.5855
101289.284
101286.2723
101284.917
101285.0518
101285.9335
101286.572
101287.8966
101290.7051
101295.4702
101301.7793
101308.3282
101313.1596
101314.9331
101313.1401
101309.188
101304.9258
101301.5835
101300.0333
101298.0432
101294.2892
101290.9011
101288.9434
101288.4614
101288.9969
101289.7848
101290.06
101290.7351
101292.6853
101296.2966
101301.2512
101306.4285
101310.1873
101311.4094
101309.6515
101306.2076
101302.706
101300.313
101299.6207
101298.5237
101295.8864
101293.6825
101292.6204
101292.6488
101293.2386
101293.8164
101293.9335
101294.2529
101295.4028
101297.6002
101300.7893
101304.1072
101306.4891
101307.2181
101305.9534
101303.6263
101301.297
101299.846
101299.6016
101299.3841
101298.3584
101297.5498
101297.2415
101297.3556
101297.6622
101297.8807
101297.9232
101298.0109
101298.3957
101299.1503
101300.3112
101301.4922
101302.3432
101302.5606
101302.0861
101301.1908
101300.3412
101299.8318
101299.8144
101299.712
101298.467
101293.8719
101289.2459
101286.2646
101286.03
101288.8142
101291.1714
101295.8631
101304.4274
101317.2995
101330.0576
101337.0189
101335.0121
101324.0634
101311.2015
101301.2526
101295.6476
101295.2528
101298.4926
101299.4778
101297.7396
101292.8803
101288.1006
101285.1234
101284.8552
101287.5667
101290.2087
101295.3022
101304.154
101317.055
101329.734
101336.6562
101334.8458
101324.3166
101311.783
101301.8738
101296.1412
101295.4847
101298.4688
101299.0175
101296.3455
101290.9818
101285.9416
101283.0117
101282.7175
101285.3496
101288.4868
101294.2745
101303.5737
101316.4843
101328.9664
101335.8654
101334.5091
101324.9023
101313.1211
101303.3499
101297.3811
101296.17
101298.539
101298.3484
101294.4062
101288.3557
101283.0102
101280.1963
101279.9378
101282.5952
101286.3411
101292.9135
101302.6553
101315.4408
101327.5808
101334.5716
101334.0043
101325.8945
101315.3728
101305.9627
101299.6516
101297.5392
101298.8535
101297.5056
101292.0759
101285.2446
101279.614
101276.9931
101276.8743
101279.7244
101284.1077
101291.3663
101301.3974
101313.8496
101325.4958
101332.7849
101333.3542
101327.3239
101318.4951
101309.8115
101303.1239
101299.7627
101299.4896
101296.5523
101289.5203
101281.9414
101276.085
101273.7071
101273.8657
101277.0371
101281.9988
101289.7377
101299.8309
101311.7606
101322.8378
101330.4533
101332.4969
101328.9863
101322.2154
101314.496
101307.5492
101302.749
101300.4366
101295.584
101287.043
101278.7802
101272.8167
101270.7137
101271.1658
101274.6323
101280.095
101288.066
101297.9871
101309.3448
101319.9968
101327.9681
101331.5608
101330.5192
101325.996
101319.4054
101312.3735
101306.1446
101301.5937
101294.7343
101284.9646
101276.2598
101270.3042
101268.3904
101269.03
101272.6371
101278.3088
101286.3175
101295.9522
101306.7827
101317.1441
101325.5418
101330.5499
101331.6936
101329.2065
101323.8011
101316.8872
101309.3715
101302.7633
101294.1653
101283.6992
101274.8651
101268.9486
101267.1336
101267.7552
101271.2198
101276.7849
101284.5861
101293.9248
101304.3499
101314.5404
101323.2717
101329.3906
101332.1878
101331.3073
101326.9783
101320.3304
101311.9016
101303.7297
101293.9903
101283.3745
101274.7264
101268.8855
101267.0745
101267.4874
101270.5514
101275.7046
101283.092
101292.0924
101302.3262
101312.3463
101321.2516
101328.0163
101331.7462
101331.8507
101328.3275
101321.9999
101313.3432
101304.3477
101294.2056
101283.9397
101275.6804
101269.974
101268.0328
101268.17
101270.7422
101275.325
101282.1605
101290.7492
101300.8176
101310.6485
101319.565
101326.4169
101330.3425
101330.7291
101327.6357
101321.7105
101313.4578
101304.5082
101294.7139
101285.0985
101277.3137
101271.7545
101269.5853
101269.5271
101271.7108
101275.743
101281.979
101290.1661
101299.7856
101309.423
101318.1739
101324.6535
101328.0755
101328.1598
101325.0702
101319.6442
101312.2842
101304.1939
101295.3239
101286.4707
101279.1067
101273.7434
101271.3899
101271.311
101273.3506
101276.9449
101282.6524
101290.219
101299.3006
101308.5977
101316.9571
101322.708
101325.1885
101324.4968
101321.1986
101316.2822
101310.1225
101303.4937
101295.8535
101287.7862
101280.7962
101275.7008
101273.3441
101273.4628
101275.6035
101278.8777
101284.0478
101290.8756
101299.2739
101308.0368
101315.7397
101320.5038
101321.8461
101320.1811
101316.6548
101312.3045
101307.4897
101302.6034
101296.275
101288.9
101282.3337
101277.6232
101275.584
101276.0699
101278.4612
101281.497
101286.0759
101292.1331
101299.624
101307.5855
101314.3712
101317.9975
101318.1702
101315.5769
101312.0018
101308.3402
101304.8808
101301.7356
101296.6318
101289.9516
101283.9391
101279.8383
101278.3532
101279.2657
101281.8123
101284.6309
101288.5363
101293.7407
101300.1918
101307.0506
101312.7274
101315.224
101314.3868
101311.0981
101307.6918
101304.828
101302.6906
101301.0136
101296.9948
101291.1568
101285.9076
101282.6299
101281.8706
101283.12
101285.6171
101288.1118
101291.2778
101295.4657
101300.7334
101306.2407
101310.558
101311.9827
101310.5133
101307.0779
101304.1704
101302.1949
101301.1401
101300.5472
101297.5698
101292.948
101288.7991
101286.4455
101286.2178
101287.5153
101289.6417
101291.6248
101293.9846
101297.0579
101300.9526
101305.0352
101308.0153
101308.6461
101307.0308
101304.052
101301.8864
101300.6913
101300.3296
101300.2965
101298.4201
101295.4456
101292.7615
101291.3416
101291.3995
101292.4121
101293.8945
101295.2038
101296.6534
101298.4887
101300.8353
101303.2977
101304.9873
101305.1758
101303.9784
101302.004
101300.717
101300.1126
101300.0604
101300.1765
101299.4313
101298.3525
101297.3632
101296.8942
101296.9704
101297.4101
101297.9683
101298.4458
101298.9354
101299.5497
101300.3422
101301.1874
101301.7123
101301.718
101301.2363
101300.5404
101300.1248
101299.9799
101300.0087
101300.0787
101298.2423
101298.4185
101298.5384
101299.4016
101299.8297
101296.6596
101290.9421
101284.2822
101283.1955
101290.9661
101308.0543
101327.0445
101338.6661
101337.6438
101325.1054
101310.8402
101301.7523
101298.5916
101299.8079
101301.3227
101298.071
101297.6414
101297.1804
101297.5469
101297.8348
101294.8971
101289.6944
101283.7555
101283.267
101291.3368
101308.2671
101326.9026
101338.3241
101337.508
101325.5051
101311.6654
101302.5583
101299.0006
101299.7563
101301.1211
101297.7795
101296.2589
101294.7249
101294.17
101294.1469
101291.6461
101287.4211
101282.8281
101283.4287
101291.9662
101308.4886
101326.4004
101337.4724
101337.1624
101326.3252
101313.4134
101304.342
101300.12
101299.9654
101300.8696
101297.4329
101294.5408
101291.6121
101289.8268
101289.3233
101287.3521
101284.4566
101281.6355
101283.629
101292.5961
101308.3695
101325.2084
101335.8667
101336.4604
101327.4929
101316.0846
101307.2354
101302.2408
101300.7831
101300.7587
101297.0674
101292.7165
101288.2875
101285.1596
101284.0909
101282.6719
101281.2588
101280.3811
101283.7953
101292.9701
101307.6101
101323.0972
101333.3777
101335.2601
101328.8151
101319.4251
101311.1853
101305.3676
101302.321
101300.8994
101296.6801
101290.9341
101285.0954
101280.8012
101279.2188
101278.3502
101278.3685
101279.3289
101283.7973
101292.8895
101306.0502
101319.9941
101329.9824
101333.4192
101329.9049
101322.9646
101315.7002
101309.3462
101304.5968
101301.3666
101296.2655
101289.3028
101282.3307
101277.157
101275.1853
101274.8025
101276.028
101278.3474
101283.4238
101292.1221
101303.7577
101316.1509
101326.004
101330.9515
101330.3368
101326.1351
101320.1464
101313.613
101307.344
101302.1364
101295.841
101287.9441
101280.2427
101274.5776
101272.3987
101272.3349
101274.2175
101277.3047
101282.5739
101290.7335
101301.1075
101312.3737
101322.2338
101328.5513
101330.3099
101328.5561
101323.9179
101317.5244
101310.1434
101303.0796
101295.4363
101286.9039
101278.8736
101273.0593
101270.8561
101270.8873
101272.929
101276.2177
101281.3997
101288.9907
101298.5704
101309.1726
101319.0831
101326.3559
101329.9266
101330.0132
101326.596
101320.5264
101312.4681
101303.9678
101295.1051
101286.1945
101278.1592
101272.425
101270.3289
101270.2701
101272.1343
101275.2328
101280.1792
101287.4218
101296.6936
101306.9729
101316.9295
101324.8048
101329.3745
101330.4196
101327.7969
101322.1134
101313.7911
101304.57
101294.8752
101285.7562
101277.9262
101272.4173
101270.4908
101270.3093
101271.9086
101274.697
101279.4512
101286.5683
101295.8432
101306.1614
101316.1836
101324.0962
101328.7297
101329.7611
101327.2892
101321.8891
101313.7916
101304.6848
101294.7422
101285.5054
101278.0096
101272.8274
101271.1447
101270.9679
101272.4087
101274.9893
101279.6687
101286.7715
101296.2144
101306.7157
101316.6359
101324.0142
101327.805
101327.9695
101325.006
101319.7182
101312.4069
101304.2785
101294.762
101285.5302
101278.4575
101273.6737
101272.311
101272.3224
101273.8147
101276.3639
101281.0484
101288.1662
101297.7158
101308.1354
101317.6319
101323.9633
101326.2712
101325.0172
101321.1855
101316.0728
101309.9703
101303.4487
101294.9716
101286.0371
101279.504
101275.2412
101274.1342
101274.5327
101276.2239
101278.8689
101283.5545
101290.6161
101299.92
101309.876
101318.4328
101323.2448
101323.7546
101320.9097
101316.5287
101311.8135
101307.0736
101302.4488
101295.4003
101287.2288
101281.2805
101277.6466
101276.8703
101277.6369
101279.5698
101282.3001
101286.9447
101293.6954
101302.3786
101311.3143
101318.3838
101321.344
101320.0329
101316.0363
101311.6168
101307.6846
101304.4032
101301.5851
101296.0606
101289.0686
101283.8914
101280.9025
101280.4926
101281.4999
101283.5598
101286.2856
101290.7071
101296.8754
101304.5059
101311.9197
101317.1099
101318.2059
101315.4333
101310.9125
101306.9996
101304.2544
101302.488
101301.0499
101296.901
101291.368
101287.1729
101284.8561
101284.7584
101285.8283
101287.8385
101290.3545
101294.2373
101299.4534
101305.7118
101311.217
101314.4114
101313.9229
101310.3519
101306.008
101303.2304
101301.8646
101301.449
101300.8449
101297.8152
101293.853
101290.7778
101289.1749
101289.3246
101290.2975
101291.9507
101294.0223
101297.0334
101300.9605
101305.4752
101309.2207
101310.7863
101309.456
101306.0032
101302.5315
101300.9416
101300.6282
101300.9436
101300.7508
101298.7869
101296.5727
101294.7614
101293.8335
101293.9784
101294.6036
101295.685
101297.0366
101298.9113
101301.289
101303.9761
101306.0163
101306.5696
101305.3227
101302.913
101300.7332
101300.012
101300.172
101300.6481
101300.5999
101299.6202
101298.9308
101298.2801
101297.9971
101298.0349
101298.2995
101298.6716
101299.173
101299.8115
101300.625
101301.5025
101302.1231
101302.1535
101301.5934
101300.6828
101299.9704
101299.8395
101300.0264
101300.2671
101300.2605
101299.6336
101302.9395
101308.495
101311.8815
101311.157
101301.8778
101286.4555
101271.8122
101266.4603
101273.5619
101293.3455
101316.846
101334.1674
101338.5776
101330.5498
101318.9565
101310.6965
101306.9894
101305.452
101303.7614
101299.2775
101301.5829
101306.1718
101308.8372
101308.1038
101299.517
101285.4603
101272.1061
101267.6549
101275.0432
101294.5018
101317.4506
101334.3423
101338.8627
101331.1752
101319.9327
101311.6768
101307.6208
101305.5802
101303.6278
101298.6835
101299.2265
101302.0111
101303.3468
101302.4878
101295.1368
101283.528
101272.566
101269.7775
101277.6699
101296.4462
101318.3129
101334.4547
101339.1724
101332.3186
101321.8706
101313.7168
101309.0514
101306.0327
101303.469
101298.0146
101296.4094
101296.8781
101296.4376
101295.2653
101289.4119
101280.855
101273.0649
101272.4015
101280.8753
101298.5771
101318.886
101334.0654
101339.0834
101333.6676
101324.548
101316.7354
101311.3889
101307.0348
101303.3892
101297.3877
101293.6724
101291.6803
101289.3538
101287.6065
101283.3054
101277.8781
101273.4994
101275.0161
101283.9527
101300.1994
101318.5904
101332.6983
101338.2122
101334.8191
101327.5368
101320.4789
101314.4288
101308.6039
101303.4919
101296.867
101291.3585
101287.1204
101283.0805
101280.7077
101277.7481
101275.0925
101273.8453
101277.2301
101286.2628
101300.7754
101317.0503
101329.9971
101336.2986
101335.3333
101330.3512
101324.3593
101317.9269
101310.6976
101303.8596
101296.4699
101289.6113
101283.5548
101278.1116
101275.232
101273.3145
101272.9493
101274.0056
101278.6124
101287.3825
101300.1628
101314.3843
101326.3008
101333.3664
101334.7796
101332.4588
101327.7605
101321.4321
101313.0705
101304.4713
101296.1377
101288.3408
101281.0847
101274.7226
101271.5557
101270.3092
101271.3351
101273.7318
101278.9611
101287.2551
101298.4607
101310.8978
101322.1761
101330.2331
101333.7462
101333.7094
101330.4592
101324.4485
101315.3339
101305.2034
101295.806
101287.3529
101279.4841
101272.7257
101269.5049
101268.5323
101270.1893
101273.0957
101278.418
101286.0865
101296.2995
101307.7974
101318.856
101327.5262
101332.6112
101334.2093
101332.1427
101326.5544
101317.0181
101305.8301
101295.4581
101286.4961
101278.4676
101271.7481
101268.747
101267.8913
101269.5934
101272.4454
101277.3921
101284.5746
101294.3508
101305.5274
101316.5537
101325.7249
101331.7641
101334.1124
101332.6195
101327.3101
101317.6809
101306.1288
101295.0852
101285.7039
101277.8508
101271.5514
101269.0387
101268.2892
101269.7156
101272.1457
101276.7421
101283.6008
101293.331
101304.6791
101315.909
101325.2347
101331.4062
101333.4871
101331.7164
101326.3814
101316.9955
101305.9341
101294.7404
101285.0775
101277.709
101272.1458
101270.3422
101269.7625
101270.8483
101272.8062
101277.0198
101283.8561
101293.6958
101305.3635
101316.8034
101325.8606
101331.2021
101332.1011
101329.3283
101323.7352
101315.003
101305.217
101294.5619
101284.9009
101278.3224
101273.7492
101272.7782
101272.457
101273.3026
101274.8871
101278.8113
101285.585
101295.5907
101307.3668
101318.599
101326.7388
101330.4573
101329.7104
101325.6365
101319.8529
101312.1685
101304.1712
101294.7173
101285.5494
101280.047
101276.5988
101276.4407
101276.3707
101277.0776
101278.4193
101282.1365
101288.756
101298.6513
101309.9862
101320.2402
101326.7826
101328.4012
101326.049
101321.1697
101315.5251
101309.2079
101303.1193
101295.3471
101287.2998
101283.1414
101280.8264
101281.2977
101281.3434
101281.8927
101283.0161
101286.5666
101292.8825
101302.2111
101312.3276
101320.7484
101325.0557
101324.6197
101321.2286
101316.3519
101311.5
101306.7021
101302.3209
101296.3286
101290.1
101287.2547
101286.0033
101286.7582
101286.7074
101286.9718
101287.9586
101291.3088
101297.1413
101305.3559
101313.5954
101319.653
101321.5854
101319.533
101315.7435
101311.6778
101308.1726
101304.9233
101301.8798
101297.4957
101293.3143
101291.6177
101291.161
101291.8984
101291.6722
101291.7067
101292.5517
101295.5148
101300.4983
101307.1499
101313.184
101316.7106
101316.5802
101313.5301
101310.1182
101307.446
101305.6211
101303.8686
101301.7182
101298.5228
101296.1791
101295.3626
101295.4042
101295.9856
101295.634
101295.4694
101296.1456
101298.474
101302.286
101307.0931
101310.9397
101312.4013
101311.1048
101308.0248
101305.4486
101304.2144
101303.7048
101303.0583
101301.5308
101299.3984
101298.4937
101298.3562
101298.5369
101298.8316
101298.3933
101298.1624
101298.5473
101300.0097
101302.3422
101305.1726
101307.1223
101307.4373
101306.1062
101303.958
101302.4634
101302.1326
101302.2718
101302.0876
101301.1261
101299.8842
101299.7423
101299.7377
101299.843
101299.8995
101299.7134
101299.5925
101299.7363
101300.265
101301.07
101301.9597
101302.4841
101302.3492
101301.7265
101300.9507
101300.5138
101300.5809
101300.7919
101300.8095
101300.4554
101301.71
101305.7472
101313.2041
101315.2175
101311.5954
101298.6226
101279.8373
101263.3033
101256.3945
101261.3346
101277.8483
101299.8817
101319.7587
101331.4367
101334.563
101332.2038
101327.4602
101321.6085
101314.2726
101306.5901
101301.1462
101303.9239
101310.3184
101311.7663
101308.3656
101296.4097
101279.4972
101264.6047
101258.7906
101264.1211
101280.3568
101301.8216
101321.1264
101332.4578
101335.5441
101333.2698
101328.4609
101322.38
101314.6956
101306.6367
101300.1758
101300.7477
101305.136
101305.5578
101302.4339
101292.3476
101278.713
101266.8444
101263.0196
101269.0468
101284.7438
101305.1259
101323.3903
101334.1476
101337.1995
101335.1024
101330.3061
101323.8858
101315.5313
101306.7243
101299.0407
101297.0038
101298.8251
101297.7002
101294.7874
101287.1145
101277.4874
101269.4384
101268.0654
101274.9511
101289.9585
101308.9057
101325.6849
101335.74
101338.7721
101337.1401
101332.698
101325.9649
101316.7062
101306.8529
101297.9783
101293.4353
101292.5521
101289.6356
101286.7464
101281.4455
101275.8102
101271.8192
101273.0715
101280.8413
101294.9891
101312.2622
101327.4692
101336.9862
101340.2093
101339.1105
101335.1145
101328.2521
101318.0399
101307.0059
101297.1268
101290.5513
101287.2158
101282.6109
101279.6488
101276.2054
101274.0503
101273.6697
101277.1632
101285.6446
101298.9051
101314.321
101327.9682
101337.0002
101340.6631
101340.4589
101337.0819
101330.3099
101319.394
101307.1865
101296.5391
101288.5303
101283.2022
101277.2125
101274.0755
101272.0583
101272.4902
101274.7987
101279.9785
101288.7864
101301.0531
101314.6676
101326.8996
101335.523
101339.8167
101340.7897
101338.2482
101331.9078
101320.5581
101307.3574
101296.1178
101287.1834
101280.4441
101273.4825
101270.2162
101269.158
101271.2459
101275.0982
101281.2355
101289.8721
101301.1972
101313.4101
101324.5386
101333.0597
101338.2853
101340.3533
101338.6608
101332.8603
101321.3763
101307.4922
101295.7263
101286.1695
101278.6001
101271.1765
101267.9363
101267.4225
101270.3359
101274.7695
101281.1628
101289.4709
101299.9069
101311.1289
101321.8681
101330.6214
101336.6088
101339.3981
101338.2993
101332.9796
101321.6297
101307.4993
101295.3001
101285.2382
101277.3385
101269.9827
101267.1153
101266.9194
101269.9703
101274.2565
101280.2601
101288.1009
101297.7974
101308.7233
101319.5363
101328.5741
101335.0605
101338.1634
101337.2504
101332.1552
101321.092
101307.2824
101294.8643
101284.4201
101276.6876
101269.898
101267.7469
101267.7291
101270.4159
101273.9789
101279.1615
101286.3229
101295.8026
101306.8121
101317.9719
101327.3591
101333.9879
101336.8687
101335.5997
101330.3931
101319.7489
101306.8186
101294.5273
101283.9502
101276.8544
101271.1137
101269.8952
101269.9793
101272.0023
101274.5532
101278.7586
101285.2533
101294.5755
101305.9016
101317.3598
101326.9784
101333.3084
101335.4488
101333.3804
101327.8075
101317.7174
101306.1198
101294.4554
101284.2155
101278.2267
101273.8453
101273.6513
101273.7584
101274.976
101276.4523
101279.6733
101285.4851
101294.5644
101305.8993
101317.3656
101326.7483
101332.3433
101333.5858
101330.6066
101324.7766
101315.4266
101305.3368
101294.7992
101285.5454
101281.039
101278.2054
101278.9029
101278.8807
101279.1957
101279.6697
101282.1063
101287.373
101295.924
101306.7522
101317.5169
101325.948
101330.5157
101330.9302
101327.4837
101321.6778
101313.3386
101304.646
101295.6408
101288.0414
101285.2672
101283.8963
101285.1244
101284.7995
101284.274
101283.8617
101285.7087
101290.4261
101298.2442
101307.8301
101317.0075
101323.7429
101326.9843
101327.0472
101324.0158
101318.7662
101311.6214
101304.1372
101296.875
101291.3685
101290.2722
101290.0555
101291.3266
101290.5328
101289.2964
101288.374
101289.8167
101293.981
101300.7473
101308.5327
101315.5692
101320.2423
101322.2675
101322.1933
101320.0615
101316.04
101310.2013
101303.7314
101298.1433
101294.8719
101294.9811
101295.511
101296.5022
101295.2891
101293.6661
101292.52
101293.6871
101297.1663
101302.6085
101308.3135
101312.9463
101315.527
101316.4455
101316.6282
101315.6783
101313.1852
101308.7992
101303.3387
101299.1118
101297.6764
101298.3877
101299.2428
101299.8314
101298.4635
101296.7811
101295.7308
101296.6198
101299.3256
101303.2901
101306.9632
101309.4158
101310.4212
101310.7153
101311.1373
101311.1762
101309.967
101306.9962
101302.7388
101299.7898
101299.5469
101300.4341
101301.1135
101301.2989
101300.082
101298.7866
101297.9917
101298.5485
101300.2635
101302.5808
101304.508
101305.5662
101305.6971
101305.7678
101306.1604
101306.6066
101306.2346
101304.535
101301.8472
101300.0174
101300.1597
101300.4862
101300.7795
101300.7386
101300.2912
101299.7583
101299.4985
101299.7095
101300.329
101301.0535
101301.5631
101301.715
101301.5827
101301.5936
101301.769
101302.1113
101302.1382
101301.6379
101300.7005
101302.802
101303.8946
101309.9232
101309.4187
101305.8854
101295.7151
101284.1271
101273.5619
101267.9479
101267.8195
101273.4292
101283.5829
101298.1827
101313.734
101327.4909
101336.6979
101338.473
101334.4634
101321.5796
101308.4934
101302.2339
101302.1833
101307.4215
101306.5621
101303.4349
101294.3481
101284.1975
101275.2275
101270.7388
101271.1923
101276.9981
101287.0341
101300.9478
101315.7622
101328.8193
101337.5269
101338.9157
101334.7678
101321.8667
101308.6163
101301.27
101299.204
101303.0034
101301.4816
101298.8856
101291.8722
101284.4705
101278.0623
101275.4322
101276.9991
101283.2068
101293.1077