/*--------------------------------*- C++ -*----------------------------------*\
| =========                 |                                                 |
| \\      /  F ield         | OpenFOAM: The Open Source CFD Toolbox           |
|  \\    /   O peration     | Version:  5.x                                   |
|   \\  /    A nd           | Web:      www.OpenFOAM.org                      |
|    \\/     M anipulation  |                                                 |
\*---------------------------------------------------------------------------*/
FoamFile
{
    version     2.0;
    format      ascii;
    class       surfaceScalarField;
    location    "0.8";
    object      phi;
}
// * * * * * * * * * * * * * * * * * * * * * * * * * * * * * * * * * * * * * //

dimensions      [1 0 -1 0 0 0 0];

internalField   nonuniform List<scalar> 
91025
(
0.6479871632
-0.0984757699
-0.08624765472
0.490151699
-0.2433798875
-0.2963880422
0.3088578856
-0.3811126782
-0.5418410085
0.2336354286
-0.4527920903
-0.7647988018
0.3305119515
-0.4643661317
-0.911737808
0.5231406395
-0.4074560629
-0.9373501284
0.6561085715
-0.3283404974
-0.8464382034
0.503299848
-0.2598341414
-0.7275505474
-0.006360346433
-0.2107695119
-0.6151231828
-0.6897395049
-0.1501368843
-0.4991387749
-1.241146807
-0.07703269989
-0.3774698877
-1.498919152
-0.007474154408
-0.2152504649
-1.520094053
0.03580985679
-0.00557226607
-1.434238135
0.03794606036
0.2785979587
-1.263343126
0.02930316572
0.5990258148
-0.8334684476
0.05770375631
0.9168350542
-0.008112437453
0.1317064195
1.093316561
1.114782368
0.1884578887
1.084028512
2.075299572
0.1668906397
0.7481551143
0.07586109623
0.3086775702
0.5671332619
-0.1753526053
-0.08230731135
0.4232117716
-0.4274853758
-0.2840346935
0.2679170473
-0.66901617
-0.5194977892
0.2266342984
-0.7870544216
-0.7352964222
0.3544376029
-0.8039455989
-0.881817169
0.5603600839
-0.7029437792
-0.9117462401
0.6916162586
-0.5650873467
-0.8295930451
0.5351038678
-0.4514430101
-0.7153700238
0.0253880961
-0.3799295995
-0.6034069001
-0.6517313585
-0.2876627892
-0.4849632437
-1.205507973
-0.1686083126
-0.3584511651
-1.47810569
-0.05107289806
-0.1927245095
-1.515827653
0.02611596395
0.01954814623
-1.435171018
0.03663884332
0.3053741998
-1.247750196
0.03913243913
0.6222646833
-0.8050618115
0.1083897325
0.9283560016
0.01106610432
0.2569463183
1.090649982
1.104015791
0.3645988521
1.070739295
2.031458647
0.3238657721
0.7369853543
0.147901274
0.3027663667
0.4264712839
-0.2157971347
-0.0755309829
0.3082583704
-0.5143099498
-0.2629238669
0.1996465965
-0.8036250282
-0.4804063995
0.217127321
-0.925934724
-0.6843929256
0.3968706591
-0.9330491948
-0.8288883851
0.6253235946
-0.8046973736
-0.8673099582
0.7507425055
-0.6471557488
-0.8016245941
0.5838305067
-0.5282487287
-0.6963169503
0.07666904795
-0.4768036506
-0.5846784786
-0.5920052104
-0.3988412249
-0.4606212982
-1.147638933
-0.2803945309
-0.3243138645
-1.44231207
-0.1529991376
-0.1504337369
-1.506741489
-0.05995387256
0.06731434158
-1.429414122
-0.03341928586
0.3542824983
-1.21159849
0.007384182517
0.6619051037
-0.7472358975
0.1293672739
0.9450074596
0.05550972191
0.3521780641
1.079812009
1.083808853
0.5011181203
1.041245632
1.947077521
0.4502857629
0.7113830379
0.2065832171
0.2905099357
0.2580145825
-0.2202974452
-0.06775199867
0.1736518967
-0.4985934105
-0.2376869242
0.1252791921
-0.7679710291
-0.433151232
0.2129729101
-0.8515934102
-0.6236054764
0.4497240482
-0.8308858897
-0.7644028173
0.7001251517
-0.6935683647
-0.8136370947
0.812216128
-0.5591368008
-0.7698065259
0.6262963797
-0.4792887473
-0.6762275991
0.1222987315
-0.4903403772
-0.5636182383
-0.5325546995
-0.4752100698
-0.4308582584
-1.084408192
-0.4097210246
-0.2782208853
-1.396999319
-0.3168828378
-0.09233516623
-1.486380975
-0.2322923348
0.1319996522
-1.405139168
-0.1868187382
0.4158487172
-1.148582546
-0.09035790189
0.7069691586
-0.6596886122
0.08140776292
0.9553759407
0.116225011
0.3720129393
1.053679281
1.055970711
0.5585491934
0.9911232765
1.828376315
0.5145830062
0.6693740011
0.2361489172
0.2695830437
0.09355325359
-0.1944071252
-0.05974659692
0.05118094911
-0.4067637561
-0.2133148116
0.06899514603
-0.5975772646
-0.3864400864
0.2240804215
-0.6072006875
-0.5643918034
0.5066273344
-0.5414539306
-0.6995861527
0.7659870466
-0.4093983413
-0.7611508453
0.8530919944
-0.329764918
-0.7399805385
0.6380741725
-0.3252134548
-0.6593576801
0.1359881939
-0.4280532996
-0.5449226656
-0.4997312207
-0.5153618912
-0.3998999781
-1.040604605
-0.5430538646
-0.2280329608
-1.356518766
-0.5213668023
-0.0284770696
-1.452458208
-0.4677675094
0.2044322443
-1.353349617
-0.4166293898
0.4805841019
-1.056558733
-0.278216567
0.7437494102
-0.543883443
-0.06528841158
0.9506695335
0.1948753994
0.2720890758
1.006681119
1.028931109
0.4873614422
0.9193230362
1.69141819
0.4785933847
0.6093867108
0.2201467752
0.2412644129
-0.03718475548
-0.145905979
-0.05316239933
-0.02825119803
-0.255602047
-0.1929763776
0.04890274521
-0.3358314885
-0.3496265578
0.2555185592
-0.254556079
-0.510487816
0.561353867
-0.1312139225
-0.6423703247
0.8102795362
-0.01300794403
-0.7147844733
0.8580659828
-0.005833094193
-0.7139832169
0.6048781099
-0.1033062624
-0.6457948038
0.1010296756
-0.3125783593
-0.528833715
-0.5125311668
-0.5163802164
-0.3694655419
-1.030956252
-0.6586980988
-0.1788512934
-1.332468104
-0.7307058087
0.03512953926
-1.413153598
-0.73317182
0.2743902111
-1.283557135
-0.7043338715
0.5365701847
-0.9382066461
-0.5537914955
0.7668914287
-0.4069378821
-0.3269128436
0.9274841827
0.2893844886
0.02661107516
0.9410073146
1.014592018
0.2619328825
0.8309154808
1.564936993
0.322640266
0.538805902
0.1519629404
0.2084316188
-0.1145175672
-0.07919416469
-0.04785634505
-0.0547529057
-0.0646477921
-0.1765011271
0.07389111551
-0.02395358409
-0.3160764392
0.3090216189
0.1555917656
-0.4651981741
0.6107326205
0.3287446192
-0.5951278501
0.823594667
0.4239758221
-0.6766100799
0.8121420721
0.3507932412
-0.6921751561
0.5172968818
0.1483840973
-0.6327463301
0.009858424888
-0.1667265384
-0.5138812997
-0.5826135669
-0.4802318002
-0.3397350208
-1.066554789
-0.7370865128
-0.1337668375
-1.336145411
-0.9123900725
0.0943522448
-1.382260723
-0.9881876616
0.3329237263
-1.209243204
-1.006205194
0.5765644425
-0.814463679
-0.8759000217
0.7716111999
-0.2617126914
-0.6754163675
0.8884065936
0.4008748101
-0.3410944773
0.8655167561
1.032354932
-0.09259641223
0.7393506708
1.485996201
0.0647499734
0.4671579301
0.0390907955
0.1770606388
-0.1264793931
0.002146335533
-0.0417076922
-0.02097060722
0.15190167
-0.1592584259
0.1499028354
0.3124963806
-0.2875022966
0.3845169989
0.5627262613
-0.4308279462
0.6475664646
0.7467622235
-0.5612247398
0.7950426564
0.8099608067
-0.6468997669
0.7130560794
0.6629138542
-0.6715439684
0.3738036073
0.3803866634
-0.6170906398
-0.1400423082
-0.01833944087
-0.4947890376
-0.7087878763
-0.4151168939
-0.309416714
-1.152404814
-0.7669370071
-0.09287528192
-1.378933455
-1.037593975
0.1438450077
-1.377638017
-1.191807151
0.3780528264
-1.150974161
-1.270381921
0.6007061544
-0.7049225786
-1.186809933
0.763272999
-0.1229845821
-1.045151058
0.8435564469
0.5247978741
-0.7601434839
0.7930307281
1.096045903
-0.51802421
0.6590815091
1.486005185
-0.2507759057
0.407365129
-0.09840881735
0.1515727173
-0.06957117596
0.09036687474
-0.03632741144
0.06827415097
0.3662432107
-0.1440221185
0.2585883165
0.614670307
-0.265295473
0.4722633015
0.8999874447
-0.4048934115
0.6688702466
1.061121224
-0.5326157448
0.731348788
1.081430248
-0.6186287863
0.5742090123
0.8772938333
-0.646342735
0.1909189753
0.5456528765
-0.5938958676
-0.3379606782
0.1051781743
-0.4707469125
-0.8829041442
-0.3401457997
-0.2801830669
-1.285385319
-0.7512777633
-0.06048853666
-1.46289177
-1.094368223
0.1791077439
-1.406622051
-1.314349955
0.4051309821
-1.121757104
-1.451460295
0.6083483847
-0.6247723316
-1.424513991
0.7439812019
-0.004142645221
-1.356542927
0.8003585733
0.6556155349
-1.138531416
0.7359992804
1.214515265
-0.9133767628
0.6025626604
1.584787445
-0.5495571488
0.3682361834
-0.2291256535
0.1366427473
0.05520353012
0.168879231
-0.03254978518
0.2041630294
0.545002552
-0.1333745621
0.3847256073
0.8419254757
-0.2492313192
0.5550855944
1.112800029
-0.3841439807
0.6685897888
1.221358967
-0.5062758804
0.6394699867
1.194336986
-0.5874714467
0.4085876796
0.9552861269
-0.6113157678
-0.01076806696
0.6095548453
-0.5594331482
-0.5631701949
0.1666325721
-0.4379339764
-1.089162799
-0.2864543801
-0.2514694354
-1.45282265
-0.7135188556
-0.03567766689
-1.58182781
-1.081682919
0.1980532058
-1.468926718
-1.334106552
0.4135353773
-1.126700533
-1.509572717
0.5998476751
-0.5812584977
-1.527682642
0.7180308339
0.08316795873
-1.52492714
0.7636323065
0.7840820695
-1.373128821
0.699721822
1.379216254
-1.178039068
0.5735236756
1.776145607
-0.7572939334
0.3530159981
-0.3220272818
0.1323073637
0.238898767
0.2190845804
-0.03142098671
0.3661869997
0.6465396093
-0.1271793955
0.5061935893
0.9432658977
-0.2394803942
0.6138243413
1.168664016
-0.3662513317
0.6428675617
1.206339481
-0.4788898868
0.5282902257
1.135065948
-0.549234213
0.2351599754
0.8854748511
-0.5660447142
-0.2299131829
0.5569785413
-0.5128361967
-0.7915801213
0.1494117456
-0.3979785499
-1.305791729
-0.2708754799
-0.2221500352
-1.63600135
-0.6657962647
-0.0190515486
-1.719737269
-1.015289148
0.2030292586
-1.552125099
-1.254946435
0.4055681164
-1.156940934
-1.429499922
0.5790735197
-0.5678505112
-1.458686377
0.689161743
0.1430013771
-1.491379495
0.7363518725
0.9055892452
-1.386737811
0.6842658349
1.573264263
-1.227683519
0.5701259764
2.031436205
-0.8071079594
0.3576614608
-0.3502493842
0.1368696849
0.4508538093
0.2232059218
-0.03100230702
0.5319549573
0.6392031985
-0.1220683124
0.6090148086
0.8864343079
-0.2291471901
0.6439437115
1.052796823
-0.3452726556
0.595387023
1.028080877
-0.4427112927
0.4106346864
0.9272313091
-0.4998293109
0.06892184814
0.6844497532
-0.5060461453
-0.4313005663
0.3956413794
-0.4533092672
-1.004295688
0.0454717068
-0.347757614
-1.508716604
-0.298432767
-0.1891281602
-1.811427255
-0.6135748474
-0.004763509498
-1.853951537
-0.8962086822
0.1984003158
-1.636963902
-1.076551281
0.3856086109
-1.196785051
-1.209000428
0.5482339776
-0.5717824411
-1.209263241
0.656874308
0.1813936077
-1.237285518
0.7140103422
1.011626531
-1.146995187
0.6818507774
1.767051574
-1.028773531
0.5815797994
2.302037139
-0.6704891594
0.3739255441
-0.302052283
0.1457153988
0.6526354098
0.175279235
-0.0320201467
0.6735826782
0.5143588339
-0.1164990557
0.6793153065
0.6758388554
-0.2134849492
0.6442256087
0.7788438033
-0.3164387615
0.5329367273
0.7088789016
-0.3988529855
0.2971681319
0.5978413178
-0.4408716369
-0.07954903672
0.3776122934
-0.4387395999
-0.6013316974
0.1412467659
-0.3857542014
-1.178177484
-0.1276825732
-0.2916533056
-1.672250266
-0.3584368988
-0.1522751489
-1.952749121
-0.5481055722
0.009744468325
-1.959431176
-0.7139196746
0.1902949871
-1.699502168
-0.7895909838
0.3598063565
-1.221716455
-0.8431688704
0.512660481
-0.5686311323
-0.7802341302
0.6228849314
0.2156367307
-0.769267019
0.6928238808
1.098233527
-0.6617630134
0.6824650531
1.927651953
-0.601881924
0.5946640309
2.527018578
-0.3632214935
0.3901195293
-0.1845690141
0.1538726138
0.8080856589
0.08127312082
-0.02911769456
0.7754536104
0.2814492484
-0.1053303625
0.720247686
0.3281194489
-0.1889789645
0.6270831546
0.3739563858
-0.2733269275
0.4669832055
0.2767840774
-0.3392756714
0.1973046901
0.1707858257
-0.3719974525
-0.1999608933
-0.01926451731
-0.3615464248
-0.7276103507
-0.1923445822
-0.3096150139
-1.296711728
-0.3508286182
-0.2250000317
-1.776089901
-0.435576004
-0.109495089
-2.035970756
-0.4583856183
0.02923828283
-2.013772653
-0.4569101599
0.1836111371
-1.721467303
-0.3842966123
0.3331043733
-1.217221646
-0.3254792125
0.4741114034
-0.5468556324
-0.1728690545
0.5850055486
0.2522800124
-0.1040213263
0.6663618428
1.161619585
0.02860986294
0.6749738713
2.026764336
0.007235422848
0.5981490467
2.657821226
0.07016461998
0.3975098295
-0.01823370541
0.1573788888
0.8850992599
-0.03287861542
-0.02278698252
0.8182687547
-0.01117272286
-0.08531239641
0.7232939838
-0.09486638473
-0.1561410023
0.5929364145
-0.1199790753
-0.2259511452
0.4030765079
-0.2410742702
-0.2792546789
0.1158837835
-0.333465497
-0.2992760358
-0.285168614
-0.4873515694
-0.2845188369
-0.7968303532
-0.5803894812
-0.2340253191
-1.339879091
-0.6046993576
-0.1615839119
-1.795586492
-0.514726639
-0.06438962052
-2.034100801
-0.3268111624
0.04959407285
-1.993283759
-0.1094747814
0.1790580366
-1.684673286
0.1549027186
0.307023948
-1.167764863
0.3620635969
0.4356893567
-0.4936144415
0.6218602147
0.5443519634
0.297126798
0.7456524308
0.6320638982
1.189261906
0.8791840167
0.6526878927
2.035654229
0.7446425037
0.583967481
2.652198489
0.5834535043
0.3902830361
0.1751886034
0.1541528775
0.8712817368
-0.1383513975
-0.01111619868
0.7984174295
-0.2895564386
-0.05585747215
0.6927047331
-0.511532834
-0.1106206362
0.5492034718
-0.6213703306
-0.1708561122
0.3457506905
-0.785040249
-0.2163164906
0.0546795782
-0.8772259404
-0.2324506569
-0.3321655943
-0.9956654431
-0.2121855117
-0.8028437692
-0.9904091095
-0.1631048991
-1.29544936
-0.8694251507
-0.09829458486
-1.713521079
-0.5793664402
-0.01974568766
-1.932034946
-0.1524350959
0.07142989707
-1.88514457
0.3139583703
0.1748953978
-1.572594228
0.8118278253
0.2823328296
-1.060648017
1.197283336
0.3935258093
-0.4061328562
1.568312003
0.4931258792
0.3386450924
1.725867264
0.5789985896
1.158575295
1.818090561
0.6043408656
1.929395606
1.531754889
0.5428861814
2.487170059
1.112787198
0.3639356235
0.369715767
0.1429644668
0.7618379924
-0.215917645
-0.0001621435713
0.7055134537
-0.5087510859
-0.0238716516
0.6164872937
-0.8524983113
-0.06446316192
0.4847412443
-1.059696272
-0.114954332
0.2893855996
-1.287683566
-0.1582465141
0.01775291504
-1.398020936
-0.1720262664
-0.3285931462
-1.480914067
-0.1523777138
-0.7337799104
-1.379591062
-0.1051298166
-1.151710042
-1.110761352
-0.05034960904
-1.512481679
-0.6234259421
0.01418624813
-1.699868161
0.04386727983
0.08318623292
-1.650995206
0.7673522775
0.1628361444
-1.365450161
1.512075689
0.2464786669
-0.8972103109
2.086610736
0.33893618
-0.3055752704
2.561047161
0.4241428395
0.3470872191
2.725301896
0.5003022084
1.047489658
2.735461239
0.5245609099
1.69265752
2.268937677
0.4722984229
2.151734597
1.591194217
0.3163796116
0.5400719942
0.1236643624
0.5876136029
-0.2578501994
0.008867866281
0.5536922949
-0.6425269792
-0.001448949852
0.4914759125
-1.082975816
-0.02674128488
0.3861346418
-1.388794534
-0.06703924582
0.2229886333
-1.696862285
-0.1025401426
-0.001406433541
-1.838880511
-0.1158155913
-0.2774608506
-1.892548265
-0.0968955405
-0.5905918758
-1.704159514
-0.05895317481
-0.909482848
-1.306104788
-0.01467179141
-1.189236641
-0.6498662472
0.03211316603
-1.337195309
0.2201543353
0.08041372039
-1.29788727
1.179344696
0.1348570827
-1.066354375
2.15023669
0.1955663347
-0.6847581917
2.898435486
0.2642315189
-0.2059723441
3.458582969
0.3301356471
0.3093474331
3.600716462
0.389098525
0.8451980219
3.500859247
0.4082905817
1.325781312
2.859505469
0.3664636081
1.661639645
1.959460918
0.2450473813
0.6656908507
0.09519922673
0.365768718
-0.2767404355
0.009384694399
0.3504792821
-0.7133260917
0.009057101434
0.3173366701
-1.213231047
-0.007199663575
0.2507709763
-1.589716534
-0.03316308539
0.1431878277
-1.959472753
-0.05973336754
-0.006377582607
-2.128854399
-0.06863592895
-0.184281704
-2.160901841
-0.05672928219
-0.3819291297
-1.914325649
-0.02964609751
-0.5821174734
-1.429661008
-0.001872108724
-0.7613904975
-0.6626390171
0.02864104801
-0.858539912
0.3474410916
0.05686488017
-0.8322485165
1.468894395
0.09081182622
-0.6789894227
2.59754804
0.1277166745
-0.4262220383
3.463636601
0.1717255099
-0.1103697917
4.076902313
0.2132068324
0.220630022
4.188211324
0.2501335806
0.5534465281
3.996967144
0.2607783705
0.844106975
3.228955005
0.2329717531
1.043460835
2.181795471
0.1549008696
0.7382680895
0.05975481935
0.1255249597
0.005246189142
0.1232808375
0.006663473293
0.1142822593
0.002449757283
0.09133721527
-0.00776282829
0.05140326457
-0.01693301353
-0.003759534288
-0.02131157996
-0.06761596297
-0.015598951
-0.136303202
-0.00669806913
-0.2051645916
0.004473671718
-0.2685481875
0.01339970074
-0.3039743565
0.02319463679
-0.2941612069
0.0333318222
-0.2389406398
0.04606872442
-0.1471705047
0.06061801012
-0.03247341578
0.07541887204
0.08480304863
0.08756945176
0.1989865475
0.09104735925
0.2957441044
0.08069696698
0.3610766751
0.05333022104
0.0203559489
0.2101548882
-0.08238588621
-0.1514946961
-0.01377771462
-0.189514851
-0.4878133771
-0.1241942703
-0.2829778526
-0.8484196767
-0.02261335305
-0.3242009332
-1.186819387
0.3198450604
-0.3362102704
-1.385720078
0.7084441472
-0.308613229
-1.436133329
0.9307801013
-0.2664329492
-1.325585041
0.7649886372
-0.2200390381
-1.183191677
0.2167730489
-0.1716940747
-1.036122252
-0.461713839
-0.1017791616
-0.860248973
-0.9562180445
-0.007615327204
-0.6446801901
-1.097593785
0.08168773614
-0.3566896814
-0.967626871
0.1371524516
-0.008623995457
-0.7779797715
0.1443135882
0.4155323621
-0.6539085001
0.1183630157
0.8648353406
-0.4881548347
0.09888435339
1.331624798
-0.09145461906
0.1138795534
1.588684761
0.5181602537
0.1293924837
1.608153361
1.110431755
0.1126257479
1.126873562
0.04802460678
0.4762853536
0.1493666623
-0.1481338118
-0.1451741122
-0.05582220339
-0.3332145312
-0.4700169037
-0.1493040918
-0.4940049388
-0.8162447436
-0.02827016534
-0.5580391612
-1.14333302
0.3313304072
-0.5727508378
-1.339088572
0.7302487409
-0.5234308661
-1.395119845
0.9555962924
-0.457313856
-1.2959084
0.7936308546
-0.3866447029
-1.160944182
0.255339643
-0.3154108383
-1.014452889
-0.4141218795
-0.202833172
-0.8357331692
-0.9116543825
-0.04250592301
-0.6144053591
-1.069046371
0.1146176766
-0.3217537812
-0.9613370349
0.2145766062
0.02836317431
-0.7870962512
0.2285070268
0.4556482675
-0.6610394883
0.1879981535
0.9005125253
-0.4857224905
0.1608856189
1.351947426
-0.08856056941
0.1971180444
1.586547833
0.5061308764
0.2313382133
1.58771191
1.078909872
0.2060496817
1.105969139
0.08813184684
0.4651254019
0.04388334161
-0.1848501944
-0.1338225436
-0.1290003855
-0.402043909
-0.4390313905
-0.1900535569
-0.5876066722
-0.7598801671
-0.03565013855
-0.6445410015
-1.067472389
0.3511858166
-0.645835962
-1.257687946
0.7654049545
-0.5825420788
-1.324381018
0.9940592149
-0.5195359497
-1.246547806
0.8381197333
-0.4604792404
-1.124577386
0.3169053041
-0.4073329835
-0.9782971371
-0.3337915852
-0.2972671069
-0.7920458952
-0.8348605738
-0.1186891657
-0.5590220721
-1.019674402
0.06595145885
-0.2559802061
-0.9502509172
0.1889290597
0.09809140222
-0.8014438691
0.2073616592
0.5289527932
-0.6706239307
0.1691981332
0.9622708835
-0.477884017
0.1515915199
1.382223877
-0.08009100416
0.2200274413
1.573733715
0.4872323011
0.2786344594
1.542770889
1.023758043
0.2607351162
1.061406462
0.1121343779
0.4425443301
-0.08384639965
-0.1886303306
-0.1200973582
-0.2128870775
-0.3904536327
-0.4009545323
-0.2304652214
-0.5515476064
-0.6924105695
-0.03718335145
-0.5691221977
-0.9751505105
0.3763314768
-0.5405584962
-1.159374189
0.8020747467
-0.4699597873
-1.239828347
1.027879219
-0.4355728574
-1.187993404
0.8765351201
-0.4236438598
-1.082458905
0.3778233575
-0.4311309386
-0.9335233076
-0.24535778
-0.3733953627
-0.7361829963
-0.7445305368
-0.2325085632
-0.4836990682
-0.960214881
-0.07053645634
-0.166480155
-0.9351955181
0.04420109015
0.193795383
-0.813617833
0.0587711866
0.6224757473
-0.6736289797
0.03666762074
1.034258681
-0.4584149793
0.04186157067
1.406332907
-0.06130023682
0.1534585108
1.54019512
0.4688542758
0.2438210887
1.46879915
0.9555148944
0.2556761775
0.9929510629
0.1114961151
0.4080931502
-0.2062738728
-0.166833344
-0.1056646276
-0.284806115
-0.3091932532
-0.3615836171
-0.2538842013
-0.4075936631
-0.624414452
-0.02521806747
-0.3580701115
-0.881834551
0.4036659997
-0.2833715942
-1.061387534
0.8275924595
-0.2088156837
-1.15750676
1.037850088
-0.2193791595
-1.134491786
0.8856020195
-0.2809095801
-1.045104103
0.4123051912
-0.3805313273
-0.8906235313
-0.1767238361
-0.416104642
-0.6759262142
-0.6651837925
-0.3639609266
-0.3987851585
-0.9023519569
-0.2730295402
-0.0619094157
-0.9182781731
-0.2044276033
0.307024707
-0.8186152182
-0.2105516782
0.7225951498
-0.6628757647
-0.2130348004
1.098885583
-0.4207215543
-0.1818370668
1.410893901
-0.02539277759
-0.02231083779
1.477875908
0.4616787712
0.1048124801
1.365961241
0.8918040578
0.1755456098
0.9016113251
0.07940557346
0.3650660812
-0.3006335142
-0.1220926541
-0.09199691522
-0.3250297875
-0.1726296324
-0.3266480704
-0.2467795898
-0.1827215782
-0.5598051091
0.007029127053
-0.05332332807
-0.797014875
0.4326912442
0.07627928336
-0.9752001075
0.8346758921
0.1564613677
-1.086597985
1.011530663
0.09088504446
-1.089726612
0.8485240477
-0.05695927689
-1.014282537
0.4000471743
-0.2645905101
-0.8510919717
-0.1524750635
-0.4163228055
-0.6157181263
-0.6235271828
-0.4880154836
-0.3098481572
-0.8715139446
-0.5060514051
0.04583641893
-0.910219269
-0.5109992334
0.4231537754
-0.816191217
-0.5625552552
0.8173265564
-0.6348793942
-0.5573463256
1.147674577
-0.3622228172
-0.5096903978
1.391483515
0.03356700781
-0.3082610028
1.392279654
0.4798125949
-0.1348534239
1.243873976
0.8548891809
0.02241638016
0.7987093916
0.01623096858
0.3173314613
-0.3478690576
-0.05946454135
-0.07977365407
-0.3213569852
0.003341207101
-0.2912519596
-0.2009420454
0.09664841864
-0.5017547868
0.06593894724
0.3110848562
-0.7260095903
0.4622511575
0.4872606464
-0.9059216822
0.8143881993
0.5632456601
-1.030701266
0.9415961635
0.4433425458
-1.05457851
0.7574992552
0.2125630625
-0.9883536573
0.3290378946
-0.1024549225
-0.8168048604
-0.1899621405
-0.3744544768
-0.5591754994
-0.6343340934
-0.5833174576
-0.2261876753
-0.8788150208
-0.7277154187
0.14443251
-0.9222962654
-0.8235842875
0.5220453343
-0.8172458213
-0.93464619
0.8916348225
-0.5972936855
-0.9376826668
1.172793702
-0.2848117799
-0.8888414214
1.352402397
0.1224283032
-0.6644676226
1.296506004
0.5386163974
-0.4491015835
1.121230024
0.8677081881
-0.1898194954
0.6974340924
-0.07199862944
0.2730505429
-0.3358995662
0.01684129526
-0.06730453064
-0.2654336364
0.2106829187
-0.2581275437
-0.1148448109
0.3976915636
-0.4532558563
0.1449748156
0.6763640517
-0.6704951356
0.4892194877
0.872074992
-0.8552040327
0.767606996
0.9392323524
-0.9884068831
0.828693669
0.772900072
-1.024207884
0.6125553044
0.4794728677
-0.9618988833
0.1969578578
0.07700312612
-0.781517021
-0.2952770685
-0.3015409163
-0.5070428954
-0.7068310938
-0.6383352831
-0.155497493
-0.9339834357
-0.9068896654
0.2276988615
-0.9628383253
-1.095881729
0.6006390656
-0.8318039621
-1.264868069
0.9450587431
-0.5589307471
-1.29232837
1.179724714
-0.197043391
-1.25589164
1.306715993
0.2381407545
-1.02315398
1.20985743
0.6446059062
-0.7788114564
1.01763376
0.9474006845
-0.4218671551
0.6168320545
-0.1699235122
0.2383154254
-0.2599585714
0.09869181032
-0.05681791282
-0.161625448
0.4122263045
-0.2312854412
-0.000244582322
0.672798659
-0.4163439148
0.2377460207
0.9912085336
-0.6295894015
0.5106359783
1.169548652
-0.8170104144
0.6983207421
1.221329853
-0.9524835936
0.6819884337
1.021315401
-0.992588282
0.426253601
0.6940472024
-0.930528377
0.01028183003
0.2379325845
-0.7454222611
-0.462657395
-0.2215207497
-0.4603543739
-0.8401706588
-0.6536182303
-0.100906783
-1.037380234
-1.024177808
0.2870747225
-1.034284393
-1.289441579
0.6510546804
-0.8584513192
-1.504660626
0.971963755
-0.5278065976
-1.553684099
1.170340439
-0.1052338541
-1.537448426
1.263457938
0.3756703635
-1.310988951
1.145193262
0.7997094359
-1.058065788
0.948790231
1.101790755
-0.6241334166
0.5670585589
-0.2573892205
0.2191525913
-0.1220470291
0.1692169532
-0.05067242558
-0.01777113328
0.5770266567
-0.2141805063
0.1385102526
0.8808717586
-0.3915039914
0.3309627873
1.198954806
-0.6001718655
0.5210637683
1.334444869
-0.7833952338
0.613296776
1.362611529
-0.9140430217
0.5157106022
1.143602732
-0.9502454555
0.2141738722
0.8109129676
-0.887056556
-0.2212058044
0.3372729014
-0.7030066311
-0.6792035741
-0.1587847538
-0.4174470097
-1.022265244
-0.6392039974
-0.0621907452
-1.17962533
-1.068568164
0.3206087726
-1.130739137
-1.376158211
0.6717494238
-0.8993564198
-1.613447093
0.9726850274
-0.5067662803
-1.66651732
1.149481141
-0.01800908182
-1.667475104
1.227901241
0.5226709167
-1.456807631
1.109841533
0.9912250899
-1.216836328
0.9196585687
1.319634495
-0.746233721
0.5529572911
-0.314442115
0.2148807268
0.06300781353
0.2132737792
-0.04966878454
0.1522268618
0.6716694593
-0.2069694453
0.276331658
0.9777409288
-0.3793976967
0.411855522
1.263131877
-0.5777082759
0.5167784257
1.342691548
-0.7492046903
0.5180552634
1.343287954
-0.8664763547
0.3433395392
1.119400528
-0.8944772241
-0.005478239654
0.8066203333
-0.8291687385
-0.472722798
0.3518514682
-0.652963389
-0.921886122
-0.1288324359
-0.3779750443
-1.234499635
-0.6036982058
-0.03783243202
-1.345349781
-1.037367704
0.3291313343
-1.240305897
-1.342485693
0.66413775
-0.9462413105
-1.569601561
0.9499421176
-0.4901743859
-1.601491218
1.118648943
0.06374051412
-1.60497606
1.200623525
0.6706980714
-1.406162136
1.099847562
1.201644427
-1.199111544
0.9244872823
1.576583809
-0.7440579666
0.5664527533
-0.3239427998
0.2235352472
0.2801546947
0.2198921864
-0.05191705916
0.3289659037
0.6711923985
-0.2041349409
0.3994986591
0.935610867
-0.3689184051
0.46969943
1.17129068
-0.551570707
0.4967309177
1.194098349
-0.7018512195
0.4197675258
1.168974375
-0.8016506159
0.1780400623
0.9515375105
-0.8177609789
-0.2250074257
0.6784496435
-0.7531970647
-0.7158858611
0.2768704053
-0.5891916193
-1.162237097
-0.1365504439
-0.3355778613
-1.447490154
-0.5500438825
-0.02043832487
-1.510243964
-0.9308014605
0.3212149313
-1.344655742
-1.183549846
0.6358388406
-0.9871999354
-1.366184489
0.9086360893
-0.4740228214
-1.352955098
1.078778184
0.1362650227
-1.340235868
1.175598997
0.8054920047
-1.14368169
1.105371329
1.402494168
-0.9860569588
0.94788808
1.831174006
-0.6008396424
0.5970125086
-0.2772523036
0.2384718221
0.4896739076
0.1832200109
-0.05645508238
0.4867235538
0.571188068
-0.2001413221
0.4958493484
0.7591204015
-0.3536869106
0.5021078095
0.9333057728
-0.5145234242
0.463782124
0.9042758876
-0.6429328449
0.3243547707
0.8612508757
-0.7213541033
0.02922886873
0.6587420094
-0.7277498558
-0.4152666964
0.4415015109
-0.6634342413
-0.92620591
0.1233228241
-0.5162209193
-1.372111752
-0.1763270201
-0.2889051096
-1.633987363
-0.4737588378
-0.005840199442
-1.651438267
-0.7439347859
0.3046294829
-1.425693275
-0.8972148202
0.5953332663
-1.007092913
-1.004368788
0.8558084714
-0.4441693262
-0.9258153552
1.029595857
0.2078517431
-0.8823434261
1.145945658
0.9191611098
-0.680381366
1.108962247
1.567069717
-0.5916337166
0.9708634886
2.039570974
-0.3240322779
0.6266790774
-0.1771839681
0.2530910215
0.6618886072
0.1059470123
-0.05492994079
0.6086927658
0.3783785129
-0.1873471261
0.5611509476
0.4589357572
-0.3184287036
0.5125498306
0.5675331921
-0.4557411145
0.4223821219
0.4915656254
-0.5615417434
0.2383898518
0.4394612622
-0.6244303595
-0.09171737038
0.2603735124
-0.6217871351
-0.5601725382
0.1081343788
-0.5620283413
-1.080310542
-0.09215609861
-0.4298349059
-1.522993635
-0.2428631347
-0.2330411816
-1.764531442
-0.3722287207
0.01556312618
-1.743312777
-0.4747328051
0.2885469881
-1.467120854
-0.4816377914
0.5530506618
-0.9979507036
-0.4832965618
0.7972626452
-0.3963731935
-0.329057326
0.9727663023
0.2764878565
-0.2486956673
1.104350681
1.001364147
-0.05081382634
1.097971675
1.669460136
-0.05247161691
0.9762913921
2.160432191
0.05419827258
0.6428695606
-0.03672919288
0.2603479136
0.7672991461
0.004206631488
-0.04814293384
0.6770843676
0.1202580158
-0.1601477168
0.5869642687
0.07351746116
-0.2714348243
0.4985269827
0.1039655683
-0.3831502489
0.3756522194
-0.01829208593
-0.4706891377
0.1684733871
-0.07480436741
-0.518877432
-0.1749792675
-0.223417604
-0.515545099
-0.644628194
-0.2989952179
-0.4564366071
-1.161809997
-0.3655480807
-0.3434390888
-1.591926719
-0.3343930032
-0.1731814151
-1.813780705
-0.2473723277
0.03796878345
-1.763697062
-0.131129019
0.2749876934
-1.453150123
0.05570368821
0.5087553173
-0.9507551218
0.1905632688
0.7343534611
-0.3292158802
0.4311247868
0.9049709378
0.3411479752
0.537890379
1.043570353
1.044519674
0.7053888231
1.057005615
1.688896575
0.5829979673
0.949285594
2.162721416
0.4930913713
0.6324321257
0.1243947824
0.2561975047
0.7912499847
-0.1012694532
-0.03229599744
0.6861808631
-0.1573844217
-0.1180703035
0.5726336491
-0.3364387062
-0.2037792406
0.4633291437
-0.393689366
-0.2989266494
0.3255581298
-0.5634059553
-0.3719860453
0.1153287578
-0.6344699148
-0.4132165231
-0.221245465
-0.7651757499
-0.403369492
-0.6667818618
-0.7597407981
-0.3485374926
-1.151250603
-0.6814408549
-0.2505876306
-1.554554002
-0.4490721226
-0.1105034141
-1.757429784
-0.1130122379
0.06440855306
-1.695389515
0.2606237866
0.2631491258
-1.37211135
0.6800137652
0.4665374698
-0.8593571353
0.9852388358
0.6653253996
-0.2470327684
1.313124307
0.8217585563
0.3885399858
1.420377132
0.9521294603
1.029034452
1.520985437
0.974850056
1.605947641
1.24448064
0.8783852226
2.027471431
0.9342147372
0.5893015482
0.2828986472
0.2373208984
0.7231202116
-0.1962376161
-0.01579178551
0.6240959288
-0.4092212988
-0.06929606038
0.5124626469
-0.7144894404
-0.1338254002
0.4048952207
-0.8614445742
-0.2113818177
0.2723724454
-1.087268003
-0.2802286545
0.07640811854
-1.179010757
-0.3150530406
-0.2251480009
-1.290959964
-0.3070697213
-0.6163573071
-1.21175645
-0.2539466921
-1.039644409
-0.9999126713
-0.1741631244
-1.394543225
-0.5718307581
-0.05806909079
-1.570473249
0.01516947302
0.07843548355
-1.504544193
0.6543645292
0.2399615263
-1.20074846
1.321107474
0.4038714572
-0.7243592859
1.804497537
0.571562359
-0.1660892269
2.215561939
0.7050132239
0.3934755661
2.295979887
0.8184472428
0.9371346618
2.294851006
0.8419232504
1.41036126
1.8470353
0.7589008422
1.750412336
1.320743651
0.5093354605
0.417283084
0.2040872132
0.5790060281
-0.2693276864
-0.001299548058
0.4996973608
-0.6063408406
-0.02968167524
0.4080558258
-1.014332688
-0.06967662322
0.3180990956
-1.242761771
-0.1310144271
0.2078813569
-1.52441565
-0.1857120328
0.04895619853