/*--------------------------------*- C++ -*----------------------------------*\
| =========                 |                                                 |
| \\      /  F ield         | OpenFOAM: The Open Source CFD Toolbox           |
|  \\    /   O peration     | Version:  5.x                                   |
|   \\  /    A nd           | Web:      www.OpenFOAM.org                      |
|    \\/     M anipulation  |                                                 |
\*---------------------------------------------------------------------------*/
FoamFile
{
    version     2.0;
    format      ascii;
    class       volScalarField;
    location    "3.6";
    object      rho;
}
// * * * * * * * * * * * * * * * * * * * * * * * * * * * * * * * * * * * * * //

dimensions      [1 -3 0 0 0 0 0];

internalField   nonuniform List<scalar> 
30538
(
1.279941666
1.289351597
1.28933326
1.289297929
1.289324774
1.289348187
1.289361994
1.289396128
1.289488816
1.289597713
1.289703413
1.289782518
1.289846346
1.289909242
1.289980948
1.29004888
1.290076223
1.290044722
1.289987601
1.292439075
1.279964077
1.289367389
1.289350571
1.289318192
1.289346501
1.289370539
1.289383242
1.289412848
1.289497974
1.289601798
1.289706291
1.289786494
1.28985051
1.289911337
1.289980783
1.290047194
1.290075045
1.290045204
1.28999108
1.292448165
1.280026102
1.289373444
1.289359424
1.289332147
1.289363631
1.289389343
1.289400187
1.289421043
1.289492185
1.289586819
1.289689232
1.289771794
1.289836841
1.289895121
1.28996066
1.290024032
1.290052551
1.290025386
1.289974696
1.292478647
1.280095024
1.289379313
1.289368481
1.289347785
1.289384374
1.289413633
1.289422161
1.289430795
1.289484024
1.289566804
1.28966704
1.289753227
1.28982095
1.289877183
1.289938357
1.289997765
1.290026754
1.290002668
1.289955509
1.292483825
1.280271209
1.289383817
1.289374207
1.289359505
1.289403408
1.289437786
1.289444738
1.289439601
1.289473921
1.2895442
1.289642828
1.289732964
1.289805839
1.289861205
1.289918526
1.289973622
1.290003384
1.289981838
1.289937584
1.292536014
1.280442347
1.289385574
1.289374551
1.289363779
1.28941507
1.289455785
1.289461852
1.289444908
1.289462145
1.289521535
1.289619294
1.289713621
1.289793081
1.289849956
1.289903939
1.289955391
1.289985643
1.28996589
1.289922946
1.292535133
1.280763066
1.289386046
1.28936914
1.289359273
1.289416352
1.289462423
1.289468525
1.289443276
1.289449745
1.289502078
1.289600365
1.289698415
1.289784754
1.289844416
1.28989722
1.289944925
1.289975191
1.289955954
1.28991263
1.292562319
1.2810556
1.289386054
1.289359568
1.289346636
1.28940494
1.289453421
1.289460254
1.28943355
1.289436745
1.289489188
1.289588457
1.289691198
1.289782495
1.289845903
1.289898141
1.289942801
1.28997186
1.289951352
1.289907063
1.292523185
1.281533194
1.289389405
1.28934975
1.289328652
1.289382124
1.289428265
1.289435847
1.289415241
1.289425012
1.289484054
1.289587178
1.289693955
1.289788023
1.289854357
1.289907943
1.289950018
1.289975293
1.289952049
1.289905968
1.292473363
1.281942777
1.289396413
1.289342828
1.289310205
1.289350726
1.289389109
1.289397698
1.289389957
1.28941508
1.289486539
1.289596272
1.289706225
1.289800352
1.289869556
1.289925485
1.289965806
1.289984587
1.289957575
1.289908525
1.29237524
1.28256749
1.289409773
1.289341587
1.289296235
1.289315325
1.289342277
1.289352006
1.28936168
1.289408144
1.289496531
1.289614681
1.289725886
1.289819411
1.289891124
1.289949701
1.289988459
1.289999228
1.289967153
1.289913569
1.292216387
1.283087303
1.289427332
1.289347654
1.289288935
1.28928403
1.289296595
1.289307542
1.289336243
1.289405266
1.289512529
1.28963758
1.28974929
1.289841596
1.289917099
1.289978641
1.29001607
1.290017953
1.289979408
1.28992048
1.292064456
1.283847433
1.289449842
1.289361196
1.289290915
1.289265549
1.289261383
1.289273965
1.2893195
1.289409783
1.289532376
1.289661446
1.289771584
1.289863117
1.289942973
1.290008605
1.290044537
1.290037032
1.289991433
1.289927172
1.291799967
1.284457235
1.289475004
1.289382034
1.289304875
1.289263677
1.289246546
1.28925839
1.289317041
1.289422795
1.289554312
1.289681617
1.289788027
1.289878643
1.289962567
1.290031704
1.290067483
1.290050378
1.289999074
1.289930986
1.291623663
1.285313907
1.289504117
1.289412502
1.289334245
1.289286813
1.289258473
1.289269538
1.289333813
1.289447142
1.289577323
1.289697521
1.289795457
1.289884086
1.289969216
1.29004123
1.290074452
1.290049973
1.289995457
1.289928016
1.291271523
1.285974325
1.289536799
1.289451964
1.289380384
1.289332215
1.289300423
1.289308676
1.289372456
1.289481211
1.289601361
1.289707422
1.289793921
1.289876608
1.289958975
1.290028161
1.290058223
1.290029422
1.289977093
1.289915182
1.291091674
1.286884146
1.289575489
1.289502281
1.289441864
1.289399504
1.289369295
1.289374904
1.289431514
1.289527058
1.289628242
1.289714606
1.289785924
1.289858064
1.289931805
1.289993185
1.290017789
1.289989149
1.289943712
1.28989169
1.290668297
1.287565393
1.289620524
1.289563586
1.289518374
1.289486268
1.289461748
1.289464653
1.289508916
1.289582638
1.289659293
1.289722535
1.289775856
1.2898324
1.289891317
1.289939547
1.289957395
1.289933445
1.28989863
1.289859892
1.290503194
1.288533058
1.289656664
1.289625898
1.289566332
1.289562617
1.289517164
1.289543416
1.289556396
1.289628737
1.289672406
1.289727693
1.289758258
1.289804269
1.289840935
1.289885813
1.289888672
1.289883574
1.289848376
1.289827679
1.290059058
1.291865371
1.283629139
1.289118117
1.281189635
1.286675013
1.280269331
1.285572342
1.281000497
1.286002411
1.283022141
1.287722311
1.285741292
1.289983438
1.288200352
1.29178982
1.289602648
1.292446275
1.289617228
1.291866116
1.288766354
1.278023232
1.289380286
1.289381817
1.289336554
1.28934243
1.289357365
1.289374232
1.289413046
1.289509999
1.289619524
1.289723582
1.289796482
1.289856163
1.289919093
1.289990034
1.290047107
1.290065425
1.290034411
1.289998015
1.293347114
1.278044919
1.289397137
1.289399191
1.289355911
1.289363047
1.289377911
1.2893947
1.28943109
1.289522799
1.289626517
1.289728478
1.289802413
1.289862441
1.289923888
1.289992986
1.290049761
1.290068738
1.290038455
1.290002972
1.29337425
1.27809875
1.289405461
1.289408929
1.289369076
1.289378363
1.289393344
1.28940965
1.289441447
1.289523082
1.289616934
1.289716308
1.289792174
1.289853156
1.289912226
1.289977883
1.290033495
1.290053304
1.290024132
1.289989687
1.293422887
1.278172027
1.289414997
1.28942063
1.289385154
1.289397565
1.289412971
1.289428152
1.289453237
1.289521085
1.289604014
1.289701007
1.28978056
1.289843536
1.289900108
1.289961023
1.290014341
1.290034491
1.290006507
1.289972994
1.293470227
1.278336247
1.289424007
1.289430908
1.28939993
1.289416619
1.289432919
1.289446519
1.289462952
1.289515773
1.289588781
1.289685436
1.289769495
1.289836523
1.289890617
1.289946682
1.289996345
1.290016272
1.289988791
1.289955879
1.293543363
1.278528632
1.289430159
1.289436914
1.28940976
1.289430588
1.289448601
1.289459655
1.289467377
1.289506618
1.28957231
1.289670533
1.289760352
1.289832752
1.289885639
1.28993719
1.289982748
1.290001446
1.289973543
1.289940213
1.293585292
1.27885247
1.289433587
1.289437007
1.289411869
1.289436202
1.289455575
1.289463749
1.289464415
1.289494544
1.289556576
1.289658994
1.289754123
1.289833011
1.289886094
1.289935195
1.289976157
1.289991927
1.289962641
1.289928063
1.293618478
1.279199934
1.28943448
1.289430847
1.289404847
1.289429938
1.28944942
1.289455248
1.289453351
1.289480368
1.289544675
1.289650746
1.289752265
1.289836492
1.289891815
1.289940171
1.289977332
1.289988397
1.289957356
1.289920237
1.293598919
1.279715417
1.289435953
1.289420969
1.289389637
1.289411404
1.289428758
1.28943379
1.289434976
1.2894663
1.289537241
1.289647904
1.289754692
1.289842972
1.289902189
1.289951376
1.289985436
1.289991341
1.289957519
1.289916807
1.2935242
1.280229267
1.28943925
1.289410185
1.289370401
1.289382173
1.289394986
1.289401985
1.289411983
1.289453702
1.289534605
1.289650059
1.289760797
1.289851614
1.289915901
1.289966914
1.289999025
1.289999455
1.289962312
1.289917304
1.293408808
1.280936539
1.289447476
1.289402199
1.28935086
1.289347106
1.289353505
1.28936471
1.289388032
1.289444815
1.289537121
1.289657562
1.289769832
1.289862793
1.289931785
1.289985434
1.29001624
1.290011478
1.289970615
1.289920851
1.293186746
1.281609399
1.289459768
1.289399268
1.289334801
1.289313634
1.289312083
1.289328905
1.289367687
1.289440886
1.289544744
1.289667678
1.289780222
1.289874741
1.289948702
1.290005452
1.290034918
1.290025253
1.289980689
1.289926342
1.292980198
1.282491406
1.289477174
1.289402683
1.289326239
1.289289494
1.289279739
1.289302281
1.289355604
1.289443923
1.289556335
1.289679352
1.289790587
1.28988623
1.289964541
1.290024522
1.290051949
1.29003718
1.289989243
1.289931342
1.292615025
1.283286217
1.289497453
1.289413181
1.289329054
1.289280317
1.289264653
1.289290122
1.289355139
1.289453772
1.289570738
1.289689661
1.28979751
1.289893495
1.289975641
1.290037122
1.290062605
1.290042409
1.28999325
1.289933122
1.292360229
1.284291509
1.289521443
1.289433085
1.28934677
1.289294377
1.289272978
1.289299514
1.289369746
1.28947287
1.289587749
1.289699132
1.28979905
1.28989245
1.289975236
1.290036949
1.29005885
1.290035361
1.289986833
1.289928536
1.291884085
1.285151679
1.289549671
1.289464455
1.289383528
1.289332351
1.28930974
1.289334049
1.289401989
1.289500842
1.289607807
1.289706411
1.289795095
1.289881539
1.2899607
1.290018312
1.290036618
1.290011594
1.289967346
1.289914537
1.29161771
1.28622648
1.289585242
1.289509433
1.289439755
1.289395111
1.289374326
1.289394132
1.289453025
1.289540604
1.289632438
1.289714306
1.289787962
1.289862153
1.289932009
1.289981915
1.289995549
1.289971936
1.289935159
1.289890847
1.29106162
1.287112101
1.289628252
1.289568066
1.289514747
1.289480379
1.289463879
1.289477783
1.289522958
1.289591573
1.289662791
1.289724218
1.289779479
1.289836575
1.289891844
1.289930368
1.289939309
1.289920044
1.289892917
1.289859668
1.29081122
1.288251256
1.28966137
1.289626552
1.289558022
1.289550893
1.289509671
1.289543085
1.289558361
1.28963032
1.28967402
1.289730677
1.289762784
1.289810489
1.289844509
1.289887625
1.289882548
1.289883156
1.289848285
1.289831396
1.29022561
1.291500489
1.283166557
1.288078063
1.280141292
1.285077203
1.278950219
1.283825038
1.279805911
1.284666434
1.282274697
1.287134076
1.285522623
1.290180486
1.288403666
1.292591834
1.289929019
1.293457186
1.289711445
1.29268514
1.288506674
1.275876607
1.289432499
1.289467545
1.289409576
1.28938257
1.289386151
1.289425883
1.289474165
1.289559389
1.28965768
1.289761135
1.289825791
1.289876006
1.289934115
1.290003421
1.290054061
1.290064733
1.290033743
1.290012756
1.295641884
1.275891928
1.289450063
1.289483938
1.289427018
1.289403366
1.289406524
1.289444279
1.289494129
1.289578904
1.289671321
1.28976942
1.289832243
1.289883027
1.289941283
1.290009698
1.290060617
1.290071805
1.290040633
1.290019973
1.295675291
1.275948543
1.289459596
1.289491827
1.289437158
1.289418428
1.289420559
1.289454694
1.289506481
1.289589418
1.28967254
1.289761899
1.289823183
1.289875577
1.289933205
1.28999923
1.29004965
1.290061213
1.290029955
1.290008744
1.295798241
1.276004704
1.289471411
1.289502615
1.28945151
1.289437413
1.289437063
1.289466861
1.289519252
1.289597917
1.289670941
1.289752279
1.289814327
1.289869281
1.289925546
1.289986252
1.29003456
1.290045358
1.290014319
1.289992783
1.295856603
1.276189165
1.289484057
1.289514688
1.289467547
1.289458001
1.289453856
1.289478522
1.289527893
1.289600321
1.289663884
1.289741169
1.289806865
1.289866857
1.289920342
1.289974334
1.290018212
1.290026807
1.289995272
1.289973958
1.296037905
1.276362669
1.289493913
1.289524596
1.289481709
1.289476466
1.28946803
1.289485749
1.289529387
1.289594306
1.289652199
1.289731137
1.289803133
1.289868919
1.28991946
1.289966237
1.290004446
1.290008998
1.289976192
1.289954575
1.296072607
1.276745971
1.289500817
1.289529387
1.289490076
1.289488372
1.289475535
1.289485909
1.289521716
1.289580793
1.289638025
1.289723138
1.289803445
1.289875076
1.289922838
1.289963843
1.289995744
1.289995425
1.289960518
1.289937103
1.296183608
1.277087113
1.289502493
1.289526835
1.289489095
1.289488615
1.289472302
1.2894766
1.289506637
1.289562246
1.289624683
1.289717758
1.289806664
1.289883207
1.289930371
1.289967673
1.289994323
1.28998859
1.289951099
1.289924013
1.296116871
1.277719985
1.289502388
1.289517068
1.289477433
1.289474681
1.28945555
1.289458319
1.289486633
1.289543215
1.289612042
1.289713689
1.289809898
1.289891275
1.289941408
1.289977572
1.290000476
1.289989814
1.28994896
1.289916495
1.296032934
1.278246366
1.289500656
1.289502251
1.289456606
1.289446895
1.289426283
1.289432732
1.289465418
1.289526572
1.289602016
1.28970887
1.289811837
1.289898137
1.289953917
1.289991562
1.290012423
1.289997845
1.289953434
1.289914846
1.295810242
1.279149842
1.289503771
1.289486134
1.289430281
1.289409972
1.289388797
1.289403527
1.2894465
1.289515285
1.289596165
1.289704739
1.289811985
1.289903972
1.289966388
1.290007678
1.290027258
1.290009977
1.289962534
1.289917503
1.295472965
1.27985702
1.289508437
1.289471774
1.289403418
1.289371119
1.289350278
1.289375603
1.289432548
1.28950958
1.289594659
1.289702105
1.289812012
1.289908632
1.289977988
1.290023267
1.290041808
1.290022158
1.289973099
1.289923095
1.295108275
1.281008311
1.289519133
1.289462401
1.289382158
1.289338741
1.289318963
1.289355721
1.289425203
1.289509294
1.289596755
1.289702139
1.289812476
1.289912679
1.289987022
1.290035277
1.290051619
1.290030325
1.289981333
1.289928191
1.294525908
1.281856612
1.289531004
1.289459946
1.289371194
1.289318355
1.289301946
1.289347476
1.289425363
1.289513185
1.28960228
1.289704805
1.289813421
1.289914347
1.28999249
1.290040335
1.29005355
1.290030832
1.289984367
1.289929697
1.294078742
1.283186591
1.289549146
1.289468458
1.289375487
1.28931922
1.289305696
1.289355959
1.289434938
1.289522377
1.289611459
1.289710595
1.289814054
1.289911016
1.289987349
1.290033097
1.290042231
1.290019883
1.289977153
1.289924363
1.293314142
1.284113394
1.289570906
1.289490372
1.289400887
1.289344725
1.289335104
1.289383963
1.289456041
1.289537994
1.289624964
1.289719068
1.289813201
1.289899935
1.289970665
1.290010645
1.290015913
1.289995525
1.289958454
1.289910427
1.2928452
1.285542076
1.289602745
1.289528205
1.28944879
1.289397498
1.289391557
1.289434601
1.28949394
1.289565111
1.289644109
1.289729646
1.289809722
1.289881614
1.289941312
1.289973824
1.289975746
1.289959064
1.289929135
1.28988743
1.291970907
1.286497689
1.289641957
1.289582294
1.289519655
1.289477029
1.289475358
1.289507511
1.289550887
1.289605976
1.289671197
1.289740309
1.289802177
1.289855505
1.289900657
1.289924425
1.289924181
1.289911997
1.289890364
1.289857507
1.291520053
1.28799808
1.289662496
1.289636449
1.289542016
1.289543905
1.289496577
1.289559241
1.289563493
1.28963796
1.289678719
1.289745466
1.289783296
1.289828262
1.289859054
1.289889818
1.289884967
1.289883143
1.289855455
1.289830683
1.290601568
1.292478178
1.281130271
1.288369273
1.277495496
1.284808656
1.27634332
1.283399519
1.277973765
1.284500694
1.28160895
1.287463646
1.28609701
1.291038356
1.290031244
1.293732973
1.292090511
1.294337383
1.291594431
1.292771175
1.289691852
1.269771877
1.289444708
1.2895654
1.289507786
1.289458118
1.289446851
1.289523877
1.289606145
1.289655549
1.289700638
1.289790005
1.289861867
1.289912222
1.289956158
1.290018831
1.290074668
1.290092162
1.290060309
1.290044433
1.299512247
1.269758176
1.289462389
1.289581544
1.289522659
1.289480013
1.289473222
1.289538082
1.289617864
1.289677471
1.289725514
1.289802534
1.289864185
1.289914954
1.289963749
1.290026875
1.290081258
1.290096857
1.290064895
1.2900525
1.299627152
1.269723707
1.289470823
1.289586898
1.289527593
1.289497813
1.289493642
1.289541246
1.289617791
1.289693334
1.289744516
1.289803065
1.289848052
1.28990003
1.289954569
1.290017738
1.290068535
1.290081102
1.290049241
1.29003936
1.299848845
1.269719796
1.289481054
1.28959214
1.289534764
1.289521038
1.289514351
1.28954403
1.289617935
1.289707216
1.2897597
1.289798083
1.289829353
1.289880693
1.289941711
1.29000258
1.290047899
1.290056617
1.290025837
1.290019387
1.300111226
1.269781117
1.289491873
1.289598842
1.289545375
1.289545535
1.289533173
1.289545877
1.289615657
1.289714474
1.289764214
1.289788786
1.289811523
1.289866623
1.289929178
1.289984827
1.290021913
1.290026324
1.289996996
1.289994735
1.30042146
1.269948207
1.289501754
1.289607132
1.289557492
1.289566738
1.289547173
1.289544067
1.289607018
1.289708378
1.289757493
1.289774435
1.289797322
1.289856994
1.28991954
1.289967517
1.289995052
1.289994163
1.289966436
1.28996735
1.300664104
1.270282838
1.289510288
1.289614141
1.289566755
1.289580607
1.28955344
1.289537019
1.289590484
1.289692273
1.289742539
1.289761511
1.289789817
1.289856234
1.289914845
1.289955009
1.289973361
1.289967209
1.289939732
1.289941389
1.300833471
1.270763003
1.289516683
1.289616057
1.289568139
1.289581478
1.289548832
1.289523274
1.289568611
1.28966653
1.289725697
1.289753697
1.289790413
1.289861098
1.289916754
1.289949485
1.289961352
1.289950585
1.289922257
1.289921069
1.300855732
1.271496841
1.289521565
1.289609508
1.289558832
1.289567773
1.289531615
1.289504565
1.289545869
1.289641034
1.289706246
1.289747961
1.289796808
1.289870993
1.28992478
1.289953849
1.289961538
1.28994728
1.289916445
1.289909094
1.300672475
1.272357776
1.289525047
1.289594069
1.289537915
1.28953959
1.289502718
1.28948149
1.289526675
1.289619857
1.289687296
1.2897415
1.289802993
1.289882554
1.289938543
1.289966702
1.289973214
1.289956564
1.28992191
1.289904906
1.300345881
1.273544504
1.289529593
1.289571925
1.289508615
1.28950227
1.289465497
1.289457199
1.289512894
1.289606794
1.28967514
1.289734517
1.289806727
1.289894742
1.289956172
1.289985827
1.28999261
1.28997439
1.289935319
1.289908312
1.299722146
1.274772331
1.289533887
1.2895476
1.289477371
1.289461758
1.289426105
1.289434392
1.28950512
1.289600512
1.289667717
1.289728022
1.289809182
1.289906459
1.289975473
1.290007411
1.290013703
1.289994464
1.289951318
1.289914617
1.299074355
1.276356228
1.289541994
1.289527046
1.289449922
1.28942564
1.289392642
1.289419594
1.289503318
1.289600044
1.289663016
1.289724678
1.289813115
1.289918582
1.289993211
1.290026371
1.29003092
1.290011037
1.289965263
1.289921471
1.298048146
1.277845933
1.289552357
1.289515583
1.289432409
1.289398362
1.289372258
1.289416736
1.289508169
1.289601054
1.289660243
1.289725601
1.289821654
1.289930833
1.290007919
1.29003774
1.290039605
1.290019412
1.289973584
1.289923342
1.297207271
1.279706629
1.289570083
1.289517379
1.289429699
1.289387975
1.289369304
1.289428622
1.2895192
1.289601754
1.289658522
1.289733294
1.289834822
1.289940411
1.29001017
1.290036149
1.290033878
1.290016084
1.289971953
1.289919251
1.29590227
1.281318723
1.289593157
1.289534326
1.289447175
1.289396306
1.289387445
1.289455858
1.289535722
1.289601643
1.289660118
1.289745262
1.289848517
1.289940401
1.28999732
1.290016646
1.290012417
1.289998818
1.2899589
1.289904857
1.29502611
1.283324345
1.28962432
1.289566799
1.289486317
1.28942903
1.289429878
1.289500131
1.289563145
1.289609924
1.289668065
1.289758677
1.289854975
1.28992728
1.289967811
1.289980752
1.289976891
1.289968652
1.289934891
1.289882308
1.293567964
1.284955745
1.289662308
1.289613597
1.289549611
1.289491528
1.289502009
1.289561237
1.289605603
1.289633312
1.289685179
1.289768351
1.289847795
1.289898493
1.289922758
1.289930948
1.289928767
1.289925404
1.289899766
1.289853201
1.292750213
1.287043549
1.289669182
1.289643817
1.2895323
1.289513742
1.289471004
1.289557619
1.289569744
1.289632584
1.289675892
1.289763235
1.289817475
1.289865986
1.289881969
1.289908165
1.289899687
1.289906204
1.289868081
1.289830687
1.291234238
1.291334415
1.279447431
1.284987785
1.27385099
1.279458004
1.271809545
1.277484969
1.27395731
1.280042555
1.279220302
1.285662315
1.285685141
1.292041815
1.291168733
1.296909105
1.293704492
1.298224234
1.292300873
1.295732365
1.288904071
1.264337088
1.28944058
1.289643463
1.289606857
1.28960322
1.28954903
1.289631681
1.289778028
1.289838428
1.289786637
1.289811902
1.289886214
1.289958311
1.289992321
1.29003195
1.290085135
1.290113978
1.290084878
1.290071569
1.305760943
1.264269123
1.289456861
1.289665641
1.289621446
1.28961265
1.289585583
1.289652567
1.28977545
1.289843265
1.289815147
1.289834959
1.289891487
1.28995963
1.289999065
1.29004034
1.290088602
1.29011168
1.290083397
1.290078796
1.305939377
1.264155645
1.289460496
1.289675381
1.28962139
1.289621253
1.289620908
1.289662789
1.289751253
1.289831918
1.289839988
1.289846464
1.289872227
1.289933573
1.289983484
1.290029746
1.290070096
1.290084067
1.290056697
1.290060778
1.306446784
1.264015219
1.289461891
1.289681603
1.289619192
1.289641627
1.289658164
1.289662122
1.289717809
1.289820497
1.289863851
1.289850612
1.289841204
1.289895357
1.289957893
1.29001017
1.290042493
1.290046378
1.290020642
1.29003465
1.306858035
1.264000981
1.289462556
1.289686165
1.289619147
1.289664932
1.289691951
1.289658092
1.289689012
1.289808805
1.289878189
1.289843345
1.289796685
1.289847004
1.289922633
1.289982609
1.290006627
1.290002491
1.289978565
1.290001673
1.307575784
1.264038683
1.289464145
1.289690923
1.289624251
1.289682724
1.289714446
1.289650372
1.289665558
1.289795767
1.289882476
1.289832022
1.289760298
1.289802074
1.289889335
1.289952241
1.289968938
1.289957102
1.289935625
1.289966183
1.307929235
1.264414388
1.289474
1.289698234
1.289631342
1.289689396
1.28972097
1.2896362
1.289641967
1.28977817
1.289869742
1.289824408
1.289736474
1.289773779
1.289863833
1.289925441
1.289934462
1.289917571
1.289897678
1.289931651
1.30838594
1.26484612
1.289486661
1.289704196
1.289634853
1.289682773
1.289710937
1.289616833
1.289618503
1.289756755
1.289852121
1.289817113
1.289737774
1.289770418
1.289853691
1.289908117
1.289911055
1.289890378
1.289871301
1.289903971
1.308360677
1.265819977
1.289505452
1.289702826
1.28962889
1.289663574
1.289686501
1.289593031
1.28959351
1.289729147
1.289823048
1.289801874
1.28974597
1.289781571
1.289858096
1.289904488
1.289902832
1.289880094
1.289859787
1.289885669
1.30815298
1.266752229
1.289517759
1.289688862
1.289609137
1.289636574
1.28965233
1.289564936
1.289571451
1.289699856
1.289794123
1.289790863
1.289751804
1.289799857
1.289875487
1.289914827
1.289910809
1.289886153
1.289863154
1.289878003
1.307561797
1.268417603
1.289532189
1.289662517
1.289578172
1.289603819
1.289610495
1.289536837
1.289554843
1.289679771
1.289770901
1.289776487
1.289757829
1.289822399
1.289902754
1.289937906
1.289931842
1.28990587
1.289878143
1.289880333
1.30653304
1.269822559
1.28953663
1.289629466
1.289543348
1.289569369
1.289566275
1.28950918
1.289545928
1.289670525
1.289755633
1.289762783
1.289767821
1.289850835
1.289936359
1.28996772
1.289959678
1.289932031
1.289899391
1.289886996
1.305418452
1.272116767
1.289549727
1.289599203
1.28951346
1.289540979
1.289526027
1.289489954
1.289547362
1.289674294
1.289747193
1.28975664
1.28978616
1.289885115
1.289970717
1.289997158
1.289985634
1.289957965
1.289920168
1.289894818
1.303653784
1.27385158
1.289560169
1.289580584
1.289495732
1.289519234
1.289496177
1.289489113
1.289560376
1.289680484
1.289740303
1.289759252
1.289815573
1.289920582
1.290000663
1.290017198
1.290002807
1.28997728
1.289935772
1.289898154
1.302235983
1.276582125
1.289586021
1.289577316
1.289494108
1.289503554
1.289477666
1.289496611
1.289578898
1.289682288
1.289730273
1.289769414
1.289851924
1.289954096
1.290016853
1.290021322
1.290005729
1.28998656
1.289943408
1.28989425
1.299989244
1.278470421
1.289612372
1.289586093
1.289511114
1.289497941
1.289471317
1.289518343
1.289603975
1.289680194
1.289715794
1.289776795
1.289882724
1.289973202
1.29001311
1.290006186
1.289992787
1.289982137
1.289940972
1.289880193
1.298522321
1.281397447
1.289649603
1.289606847
1.289543485
1.289508264
1.28948122
1.289556538
1.289636596
1.289680133
1.289702522
1.289780957
1.289895951
1.28997139
1.289987013
1.289973689
1.289965458
1.289963509
1.289926761
1.28986005
1.296070459
1.283306704
1.289684596
1.289641415
1.289597447
1.289542212
1.289525886
1.2896082
1.289676608
1.289687544
1.289700583
1.289780125
1.289885072
1.289942389
1.289941163
1.289927475
1.289925542
1.289929113
1.289899634
1.289834709
1.294709613
1.28631159
1.289654325
1.289656561
1.289494934
1.289524876
1.289398883
1.28957533
1.289583697
1.28966496
1.28967168
1.289768603
1.289847326
1.289907113
1.289913472
1.28991865
1.289918834
1.2899191
1.28988126
1.28982027
1.292219486
1.29321062
1.2747337
1.285103119
1.267362234
1.278058813
1.265292784
1.275697158
1.269487252
1.27911012
1.277658946
1.286204689
1.287189403
1.294190424
1.29540764
1.3001231
1.29952386
1.300905837
1.297265681
1.296221179
1.291861502
1.252837621
1.289266674
1.289684601
1.289649013
1.289829706
1.289750913
1.289633975
1.289824347
1.290051
1.289994137
1.289849881
1.289833261
1.28994083
1.290026012
1.290047926
1.290063551
1.290079951
1.290060797
1.290065097
1.31576931
1.252643436
1.289281877
1.289716734
1.289678213
1.28976919
1.289745542
1.289703972
1.289824452
1.28998283
1.289981589
1.289891908
1.289868944
1.289946276
1.290022045
1.290052815
1.290067632
1.290076811
1.290055303
1.290072575
1.316266055
1.252174138
1.289274533
1.289747098
1.289692191
1.289712202
1.289748286
1.289782227
1.289799304
1.289882199
1.289944439
1.289935527
1.289898506
1.289929244
1.28998867
1.290034483
1.29005058
1.290048285
1.290022159
1.290047284
1.31725146
1.251741842
1.289259675
1.289774004
1.289703185
1.289690293
1.289779228
1.289842424
1.28978142
1.289791702
1.289903709
1.289966414
1.289917019
1.289893016
1.289937918
1.290001707
1.290024809
1.290009831
1.289979004
1.290012336
1.318463707
1.251223365
1.289237427
1.2897924
1.289716644
1.289685731
1.289815933
1.289903773
1.289770276
1.28972481
1.289863133
1.289971994
1.289905968
1.289844632
1.2898782
1.289964065
1.289992404
1.289966603
1.289930846
1.289969521
1.319868346
1.251052238
1.289223808
1.289801509
1.289732744
1.289672962
1.289824146
1.289938897
1.289756434
1.289671395
1.289827042
1.289961105
1.289875597
1.289781791
1.289817788
1.289921781
1.289956672
1.28992126
1.28988269
1.289922557
1.321024998
1.251109025
1.289226938
1.289807699
1.289748587
1.289646884
1.289802697
1.289945171
1.289740376
1.289631182
1.289800501
1.29101566
1.289844598
1.289735066
1.289769528
1.289888253
1.289922605
1.289880248
1.289839767
1.28987756
1.321914171
1.251677305
1.289251607
1.289814131
1.289757322
1.28961206
1.289764177
1.289930006
1.289726726
1.289597273
1.28981478
1.289963927
1.289834092
1.289707233
1.289744788
1.289866021
1.289896061
1.289847724
1.289807308
1.289840803
1.322223561
1.252757895
1.289289267
1.289814739
1.289748598
1.28958414
1.289727398
1.289901988
1.289705447
1.289573076
1.28979694
1.289929391
1.289829068
1.289704183
1.289746335
1.289860256
1.289881461
1.289829035
1.289788993
1.289817885
1.321870221
1.254310377
1.289327235
1.289801243
1.289722279
1.289569559
1.289700115
1.289856401
1.289673521
1.289558499
1.289733114
1.28990948
1.289809565
1.289715961
1.289767244
1.289869162
1.289880222
1.289825398
1.289785644
1.289807016
1.320914841
1.256570235
1.289364335
1.289773795
1.289680188
1.289565669
1.289680283
1.28979498
1.289631769
1.289564795
1.28973986
1.289864972
1.289803006
1.289743683
1.289803537
1.28989096
1.289891858
1.289837116
1.289796608
1.289811579
1.319068676
1.259062589
1.289394847
1.289737259
1.289630701
1.289568114
1.289663462
1.289720687
1.289579548
1.289577769
1.289759341
1.289860513
1.289813843
1.289778115
1.289848061
1.28992093
1.289912368
1.289858916
1.2898171
1.289821234
1.316921819
1.262354924
1.289436167
1.289700706
1.289586588
1.289575239
1.289646602
1.28964339
1.289525582
1.289594013
1.289788463
1.289869267
1.289822242
1.289812095
1.289894016
1.2899532
1.289934619
1.289884269
1.289840989
1.289836713
1.313781604
1.265473122
1.289478897
1.289675272
1.289560666
1.289581051
1.289632074
1.289588276
1.289497687
1.28962656
1.289816017
1.289861266
1.289820623
1.289848156
1.289940554
1.289977125
1.289950047
1.289905129
1.289862015
1.28984238
1.31096559
1.269424195
1.289538184
1.289661595
1.289553997
1.289592034
1.289619616
1.289543141
1.289513458
1.28966899
1.289819389
1.289841845
1.289832638
1.289894756
1.289973399
1.289982868
1.289952032
1.289917786
1.289877324
1.289844716
1.307084382
1.272744944
1.28959294
1.289647711
1.289560365
1.289617613
1.28960496
1.289522841
1.289577072
1.289721534
1.289798209
1.289807489
1.28984903
1.289938193
1.289986424
1.28996717
1.289938672
1.289920211
1.289885986
1.289835781
1.304330287
1.276937673
1.289652036
1.289633445
1.289580833
1.289641518
1.289575624
1.289539623
1.289654321
1.289761217
1.289758682
1.289768427
1.289859375
1.289956906
1.28997364
1.28993592
1.289913683
1.289912041
1.289886486
1.289825955
1.300240948
1.280207427
1.289696975
1.289633638
1.289613648
1.289660172
1.289560513
1.289585264
1.289718333
1.289780894
1.28972911
1.289739094
1.289851626
1.289943358
1.289937383
1.289894723
1.289882017
1.289890624
1.289874059
1.289809276
1.297863221
1.284428135
1.289634118
1.289596042
1.289388235
1.289496189
1.289242007
1.289423857
1.289524172
1.289676391
1.289649849
1.289715028
1.28982332
1.289928707
1.28993234
1.289910354
1.28990297
1.289893023
1.289872213
1.289800081
1.293796683
1.291348477
1.271002275
1.278780733
1.259563715
1.267502308
1.255656613
1.263719147
1.26140963
1.270573743
1.273416554
1.283302289
1.287321046
1.297190515
1.299141037
1.307965169
1.304520954
1.310231781
1.29981931
1.302914061
1.290679626
1.241658783
1.288964428
1.289765392
1.289631109
1.289961853
1.29007466
1.289673746
1.289626876
1.290014845
1.290195209
1.290053774
1.289895927
1.28994189
1.290050234
1.290090123
1.290067852
1.290030801
1.289991953
1.290026249
1.329250393
1.241165253
1.288978421
1.289775906
1.289703187
1.289830649
1.289938735
1.289776038
1.28973227
1.289960763
1.290123786
1.290044953
1.28992309
1.289957989
1.290044164
1.290087907
1.290074773
1.290033341
1.289987924
1.290031585
1.330112018
1.240243971
1.288965892
1.289803119
1.289773463
1.289706951
1.289815355
1.289913604
1.289870157
1.289871252
1.28999199
1.290023844
1.289947213