/*--------------------------------*- C++ -*----------------------------------*\
| =========                 |                                                 |
| \\      /  F ield         | OpenFOAM: The Open Source CFD Toolbox           |
|  \\    /   O peration     | Version:  5.x                                   |
|   \\  /    A nd           | Web:      www.OpenFOAM.org                      |
|    \\/     M anipulation  |                                                 |
\*---------------------------------------------------------------------------*/
FoamFile
{
    version     2.0;
    format      ascii;
    class       volScalarField;
    location    "7.6";
    object      T;
}
// * * * * * * * * * * * * * * * * * * * * * * * * * * * * * * * * * * * * * //

dimensions      [0 0 0 1 0 0 0];

internalField   nonuniform List<scalar> 
30538
(
277.7477124
273.0511305
272.9781962
272.9701238
272.957125
272.9572489
272.9657148
272.9735182
272.9794182
272.9898561
273.0015685
273.0069474
273.0071094
273.0129487
273.0230058
273.0269451
273.0203509
273.0113225
272.9884982
271.7082694
277.7530961
273.0487175
272.9700468
272.9621699
272.9550356
272.9559927
272.9636048
272.9713641
272.9766857
272.9841746
272.9929216
273.0002131
273.0034526
273.0075548
273.0127604
273.0148165
273.0119635
273.0074701
272.9865653
271.7122236
277.712927
273.0519034
272.9681749
272.9603869
272.9600987
272.9619004
272.967817
272.9757428
272.9809941
272.9845885
272.9893408
272.9979036
273.0045702
273.0069482
273.0067184
273.006961
273.0088329
273.0094849
272.990982
271.7028479
277.723571
273.0544926
272.9686675
272.961467
272.9663521
272.9681573
272.9712167
272.978816
272.9852881
272.9866416
272.9870166
272.9952368
273.0037479
273.0046802
273.0013167
273.0011706
273.006569
273.0103501
272.9933505
271.712183
277.5993158
273.0509847
272.971907
272.9660839
272.9722483
272.97428
272.9739592
272.980313
272.9880974
272.9895682
272.9871103
272.9922358
272.999784
273.0004748
272.9972374
272.9981739
273.0048972
273.0093489
272.9922925
271.6708396
277.5716042
273.0451784
272.9771864
272.9734325
272.9772533
272.9797272
272.9773385
272.9812656
272.9887654
272.9917507
272.9889758
272.989953
272.9936571
272.9950399
272.9941806
272.9962923
273.0023562
273.0066893
272.9904586
271.6860824
277.3463711
273.039026
272.9834957
272.9816622
272.9815767
272.9841874
272.9825974
272.9837311
272.9878836
272.9913755
272.9903281
272.9890998
272.9888738
272.9904033
272.9910654
272.9934681
272.9987321
273.0038483
272.9908577
271.6424008
277.3012201
273.039236
272.9888035
272.9880829
272.9852913
272.9871658
272.9888809
272.9883666
272.9872715
272.9893477
272.9900974
272.9885205
272.9863158
272.9874584
272.9886823
272.9903392
272.9943895
273.0013495
272.9937707
271.6849955
276.9811696
273.038958
272.991504
272.9913858
272.988511
272.9890134
272.9938802
272.9936783
272.9886792
272.9881563
272.9892094
272.988303
272.9855116
272.9862363
272.9876577
272.9879756
272.990947
272.999276
272.9965176
271.6611357
276.9189732
273.0400254
272.9917335
272.9920983
272.9916004
272.9905149
272.9956439
272.9964807
272.9919931
272.9894946
272.9890325
272.9877128
272.9843023
272.9854094
272.988212
272.9888982
272.990495
272.9974601
272.9957223
271.7447887
276.4887755
273.0339736
272.9914455
272.9924143
272.9948674
272.9928824
272.9947306
272.9957594
272.9950305
272.9927189
272.9905687
272.9879507
272.9836764
272.9850474
272.9896535
272.9924289
272.9934738
272.9962409
272.9911261
271.7482878
276.4086064
273.0291748
272.9923589
272.9936197
272.9981536
272.9964715
272.9932716
272.9926525
272.9957734
272.9956279
272.993118
272.9897443
272.9849653
272.9855954
272.9911463
272.9969938
272.998423
272.9963197
272.9856856
271.8701761
275.8552306
273.0203371
272.9943533
272.9951198
272.9995236
272.999021
272.9931085
272.9901379
272.9951348
272.9972961
272.9953163
272.9926855
272.9890006
272.9881182
272.9923433
273.0000446
273.002763
272.9983067
272.9837052
271.9042708
275.7763347
273.0169861
272.9955275
272.9953954
272.9979118
272.9983735
272.9941056
272.9907385
272.9952207
272.9976879
272.9960276
272.9952849
272.9938532
272.9922831
272.9940844
273.0013242
273.0052105
273.0016807
272.9869052
272.0779309
275.1245503
273.0114581
272.9950041
272.9942409
272.9943062
272.9948931
272.9949941
272.9939793
272.9970735
272.9975648
272.995577
272.9959909
272.997266
272.9968414
272.9969745
273.001062
273.005455
273.0048819
272.9944565
272.1535274
275.0688886
273.0103417
272.9944056
272.9939503
272.9916911
272.9916402
272.9951448
272.9974936
272.9996144
272.9976319
272.9950358
272.9953918
272.9979804
273.0001193
273.0004317
273.001381
273.0041257
273.0056427
273.0005048
272.3620909
274.3271008
273.0057118
272.9950355
272.9950087
272.9918823
272.9912545
272.9952543
272.999481
273.0007945
272.9979701
272.9960299
272.9952884
272.9975932
273.00202
273.0037483
273.0024083
273.0020937
273.0034413
273.0031471
272.4634808
274.3054324
273.0043754
272.9971278
272.9981813
272.9950222
272.9950944
272.9962272
273.0009534
273.000199
272.9984384
272.9981802
272.9974376
272.9980024
273.0030743
273.00528
273.0027871
273.0001206
273.0003983
273.0026563
272.6782865
273.4766368
273.0692753
273.0007704
273.1028057
273.0034251
273.111751
273.0074826
273.0935202
273.005426
273.0549046
273.0017854
273.0271857
272.9972159
273.0136017
272.9965977
273.0054442
272.9904112
273.0007929
272.9986636
272.7807181
268.1751353
280.3711853
269.6004668
281.4718635
271.1802237
281.5833434
272.1649607
280.7147457
272.3816263
279.1155156
271.8880219
277.2024186
271.0732731
275.497867
270.4587237
274.4506559
270.3454368
274.2566345
270.788435
274.7359616
278.661305
273.0636993
272.9761538
272.9694698
272.9613172
272.9623468
272.9680323
272.975616
272.9822494
272.9907271
273.0019589
273.012217
273.0151472
273.0150527
273.0177211
273.02236
273.0218341
273.0156051
272.9861159
271.3760724
278.6688678
273.060447
272.9677054
272.9613309
272.9583541
272.9592627
272.9640263
272.9720403
272.9796301
272.9872033
272.9950119
273.0038659
273.0089917
273.0107186
273.0118839
273.0140577
273.0135578
273.0092596
272.9817792
271.3700544
278.6274525
273.0634221
272.9678179
272.9612258
272.9623374
272.9629259
272.9662683
272.9745891
272.9837032
272.9898904
272.9929945
272.9994592
273.0065285
273.0104889
273.0106821
273.0099831
273.0097203
273.008122
272.9837573
271.3462608
278.6398702
273.0671143
272.9710986
272.9644774
272.9672783
272.967691
272.9694202
272.9769538
272.9869854
272.9923598
272.9919709
272.9955671
273.0024879
273.0077978
273.0079367
273.0057471
273.0059264
273.0070408
272.9859984
271.3351314
278.508585
273.0640356
272.9760681
272.9698407
272.9715537
272.9731682
272.9741784
272.9795481
272.9882015
272.9939947
272.9933048
272.993805
272.9978922
273.003047
273.0038388
273.0016734
273.0027493
273.006159
272.9878588
271.2834701
278.4789109
273.0580682
272.9807161
272.9756479
272.9752573
272.9785513
272.980372
272.9827472
272.9875246
272.9939261
272.995952
272.9944218
272.9940598
272.9977583
272.9989107
272.9978676
273.0002024
273.0052697
272.9890873
271.2748321
278.233426
273.0508798
272.9847386
272.9813449
272.979617
272.9832032
272.9867241
272.9870656
272.9868006
272.9922784
272.9969331
272.9956296
272.9920916
272.9932627
272.9942199
272.9948725
272.9983961
273.0039118
272.9893489
271.224113
278.1728929
273.050004
272.9877067
272.9865976
272.9847829
272.9865021
272.9909165
272.9911809
272.9880791
272.9905217
272.9949954
272.9945841
272.9907135
272.9901551
272.9909646
272.9932153
272.9971777
273.0017777
272.9880123
271.2462491
277.8137203
273.0486712
272.9896147
272.9907262
272.9898021
272.9881961
272.9924496
272.9943541
272.9918867
272.9908175
272.9919265
272.9920893
272.9892323
272.9881358
272.9896079
272.9932255
272.9968505
272.9992131
272.9853381
271.2266317
277.719462
273.0485871
272.9906828
272.9928861
272.9931595
272.989468
272.9920217
272.9951954
272.9962997
272.9934674
272.9906994
272.9899441
272.9879063
272.986963
272.9895341
272.9941947
272.9971225
272.9969396
272.9827022
271.3096308
277.2228348
273.0406987
272.9918388
272.993447
272.9944999
272.9920415
272.9920283
272.9942491
272.9979578
272.9961639
272.992075
272.9902285
272.9878288
272.9868126
272.989601
272.9947996
272.9977084
272.9963495
272.9825749
271.3467615
277.0980726
273.0346859
272.9933639
272.9930695
272.9949033
272.9960519
272.9938341
272.9923678
272.9960541
272.9965548
272.9946304
272.9924803
272.9895509
272.9878839
272.9894007
272.9945447
272.998078
272.9979269
272.9855602
271.5018524
276.457035
273.0255816
272.994967
272.9928315
272.9949416
272.9992202
272.9968167
272.9915188
272.9926919
272.9951895
272.9963874
272.9951512
272.9925374
272.9905659
272.9902993
272.9942084
272.9983667
273.0006969
272.9909073
271.5879776
276.3293619
273.0232044
272.9953437
272.9925258
272.9942038
272.9992125
272.9980431
272.992313
272.9916869
272.9942331
272.996531
272.9960324
272.9948746
272.9938919
272.9931732
272.9952095
272.9987921
273.0025146
272.9948782
271.7936114
275.5723485
273.017105
272.9946915
272.9927561
272.9927418
272.9958888
272.9965123
272.9938746
272.994259
272.9955067
272.9960483
272.9952957
272.9952476
272.9963022
272.996867
272.9977488
272.999526
273.002315
272.996483
271.9121058
275.4643131
273.0140332
272.9941421
272.9940277
272.9921545
272.9925559
272.9934771
272.9949817
272.9980168
272.9977412
272.9960361
272.9942552
272.9942902
272.9968491
272.9994634
273.000575
273.0005733
273.000962
272.9953649
272.1489706
274.5959852
273.0055108
272.9947069
272.996118
272.9934146
272.9914316
272.9914668
272.9957942
272.9996938
272.9990791
272.9971378
272.994756
272.9941283
272.9965121
273.0003453
273.0027377
273.0019434
272.9996104
272.9944531
272.2947338
274.5317799
273.0017938
272.9961284
272.9995196
272.99663
272.9944059
272.9922022
272.997692
272.9992022
272.9993774
272.9983588
272.9968877
272.996073
272.9970721
272.9999265
273.003245
273.00284
272.9992442
272.9943694
272.5499784
273.5676634
273.0739698
273.0004894
273.1176159
273.0085497
273.1268572
273.0095831
273.103582
273.007195
273.060883
273.0012663
273.0278689
272.9963833
273.0087415
272.9899082
273.0037789
272.9922939
273.001905
272.9946499
272.7045476
268.0920155
280.8624006
269.8143431
282.2353934
271.7146909
282.4415501
272.8378625
281.4718101
272.9111425
279.6404499
272.0985775
277.4711495
270.9625121
275.5566785
270.0864825
274.4393241
269.8892627
274.3111892
270.3841815
274.9195078
279.6683316
273.0836631
272.9746045
272.9683874
272.9704412
272.9739377
272.974946
272.9813403
272.9895663
272.9969349
273.0068999
273.0204121
273.0267361
273.0216758
273.0155595
273.0188737
273.0244088
273.0235279
272.9860414
270.4397624
279.6729434
273.0765481
272.9675932
272.9621368
272.9651819
272.9679206
272.969001
272.9754964
272.9862969
272.9961901
273.0030804
273.0110487
273.0172583
273.0180459
273.0152834
273.0158885
273.0169634
273.0144345
272.978326
270.424271
279.6237337
273.075365
272.9706677
272.9663252
272.967055
272.9678902
272.9691197
272.9759476
272.9897172
273.0013238
273.0039485
273.0055559
273.0107662
273.0170403
273.0186868
273.0169715
273.0138457
273.0099575
272.9764954
270.3567576
279.6430257
273.0770638
272.9773561
272.9740414
272.9698994
272.969507
272.9721067
272.9784663
272.9915477
273.0029144
273.004175
273.0014875
273.0039776
273.0123859
273.0174672
273.0149243
273.0096627
273.0065507
272.9773777
270.3337121
279.4986377
273.0738996
272.9843891
272.9802166
272.9725643
272.9727495
272.9791046
272.9842194
272.9907647
272.999904
273.0051355
273.0024225
273.0003981
273.0064555
273.0120857
273.0100578
273.0056877
273.0052936
272.9808971
270.2264155
279.4772824
273.0721072
272.9874281
272.9828181
272.9753751
272.9773479
272.988546
272.9922717
272.9890574
272.9947885
273.0059681
273.0069027
273.0010561
273.0019792
273.0049048
273.0041439
273.0029218
273.00593
272.9856778
270.2235902
279.2064407
273.0677388
272.9871009
272.9831847
272.9806264
272.982978
272.99538
272.9987635
272.9901463
272.9918552
273.0049664
273.0086467
273.002552
272.9990949
272.9989468
273.000078
273.0020811
273.0061515
272.9869793
270.125819
279.1498079
273.0675039
272.985833
272.9851982
272.9881288
272.9887761
272.9960819
272.9997575
272.9946456
272.9935731
273.0013288
273.0053322
273.0011916
272.9966518
272.9954099
272.9988079
273.0027973
273.0047241
272.9844003
270.1686572
278.728165
273.0627283
272.9873665
272.989765
272.9951404
272.9933514
272.9926426
272.9961423
273.0005152
272.9988728
272.9979964
272.9987884
272.9976672
272.9944248
272.9942996
272.9997929
273.0038478
273.002049
272.9788469
270.1361741
278.6234215
273.0603559
272.9915946
272.9950171
272.9973543
272.9959759
272.9902926
272.9929981
273.0045913
273.0039876
272.9968216
272.9948117
272.9949959
272.9930433
272.9943459
273.0002346
273.0038145
272.9996727
272.9752029
270.2765315
278.0208275
273.0487565
272.9965711
272.996962
272.9948601
272.9966662
272.9930158
272.9932895
273.0035639
273.0049943
272.9981401
272.9953763
272.9951296
272.9929645
272.9934581
272.9982665
273.0020184
272.9995902
272.9783788
270.3546691
277.894439
273.0428234
272.9983703
272.9955704
272.9912293
272.9969237
272.9991355
272.9969208
272.998521
273.0002497
272.9997754
272.9983447
272.9970442
272.9940498
272.9912118
272.9940075
272.9986858
273.0015905
272.9875697
270.6026568
277.1059025
273.0328061
272.9972612
272.9934276
272.9902946
272.9977842
273.0042579
273.0006039
272.992893
272.9936105
272.9997664
273.0003491
272.9985327
272.9954532
272.9911124
272.9911372
272.9959424
273.0038904
272.9973766
270.7696221
276.9895048
273.0324553
272.9952226
272.9929584
272.9923711
272.9986371
273.0040807
273.0008831
272.9915044
272.9911436
272.9987847
272.9995527
272.997554
272.9962753
272.9943096
272.9925001
272.9950037
273.0034862
273.0004793
271.0819846
276.0474315
273.0242765
272.9950538
272.9942036
272.9948622
272.9983775
272.9991207
272.9978041
272.9940774
272.9940435
272.9990752
272.9976295
272.9944888
272.9957362
272.9984861
272.997392
272.9962447
273.0001684
272.9967321
271.294027
275.9542463
273.0196154
272.9964853
272.9963297
272.9964006
272.9979759
272.9934568
272.994122
272.9974144
272.9997221
273.0008186
272.9966374
272.9921155
272.9941109
272.9997071
273.0019043
272.9991
272.9971296
272.9900781
271.6339994
274.8640778
273.0063045
272.9978275
272.9983257
272.9974888
272.997171
272.9913452
272.9924563
272.9983145
273.0028208
273.0022081
272.9972504
272.9933995
272.9928243
272.9976474
273.0036736
273.0029054
272.9976262
272.9879759
271.8874129
274.835058
273.0016619
272.9977177
273.0016514
272.9994192
272.9983785
272.9919607
272.9947429
272.9984541
273.0030227
273.0007192
272.9981081
272.9969254
272.9937409
272.9952628
273.0033486
273.0061232
273.0007844
272.9901717
272.2550713
273.6390709
273.0969853
273.0012102
273.1520491
273.0104916
273.1578859
273.0097192
273.117231
273.0078906
273.0639819
272.9993728
273.0221636
272.9977899
272.9989515
272.9840752
272.9933381
272.9946055
272.9988967
272.9931105
272.5268419
267.3973598
282.1091912
269.4443415
283.7295402
271.7255807
283.8298823
273.080022
282.369085
273.1488874
279.8903985
272.1677751
277.0744933
270.8393993
274.6540434
269.8417038
273.2902029
269.7627853
273.2744212
270.5823404
274.1684389
282.631675
273.1558335
272.9733282
272.9653796
272.9789357
272.9841543
272.985938
272.9916166
272.9975775
273.0053366
273.0166899
273.0267974
273.0307672
273.0300901
273.0261232
273.0220858
273.0228397
273.0247868
272.982533
268.8912374
282.6515006
273.1425393
272.9733939
272.9654805
272.9704926
272.9770692
272.9794412
272.9841965
272.9939614
273.007016
273.015399
273.0178511
273.0203456
273.0244479
273.0226723
273.0191066
273.0177622
273.0179431
272.9752656
268.8351121
282.6046541
273.1321974
272.9806008
272.9747821
272.9701798
272.9756014
272.97832
272.9825203
272.9970846
273.0132
273.0177333
273.0143704
273.0152673
273.0211696
273.0226359
273.0211437
273.0179101
273.0150761
272.9726218
268.7120808
282.6608728
273.1261357
272.9872663
272.9852825
272.9729113
272.9751766
272.9797598
272.9853219
272.9990163
273.0127462
273.0168709
273.0140295
273.0127972
273.0157676
273.0186419
273.0204976
273.0168002
273.01164
272.97082
268.5845722
282.5265006
273.1228297
272.9922071
272.991163
272.9771205
272.9759367
272.9860348
272.9948002
272.999052
273.0049871
273.0141784
273.0172687
273.0132253
273.0092893
273.0120678
273.0172919
273.0143105
273.0085296
272.9711451
268.4007406
282.5546151
273.1310753
272.9923542
272.9913559
272.9822472
272.9783133
272.9955729
273.0087235
272.9999076
272.9956231
273.01118
273.0205155
273.0147965
273.0057521
273.0065157
273.0124391
273.0108491
273.0061294
272.9743373
268.2868242
282.248481
273.1335271
272.9872984
272.9865223
272.9888585
272.9843072
273.000724
273.0162499
273.0051938
272.9946158
272.9986873
273.0182756
273.0147582
273.0052895
273.0033122
273.0081709
273.0078168
273.004869
272.977988
268.1586429
282.180923
273.1321707
272.982596
272.9835433
272.9959384
272.9942939
272.9995333
273.0108899
273.0108372
273.0022413
272.9435591
273.0118484
273.0116081
273.0045228
273.0012512
273.0052745
273.0062005
273.0044785
272.9797314
268.1486697
281.6233124
273.1162405
272.9861658
272.9867297
273.0015914
273.004759
272.9951931
272.9987853
273.0127455
273.0122069
273.0028466
273.0044367
273.006259
273.0025547
272.9992657
273.0035578
273.006146
273.0046561
272.9792591
268.1655183
281.4150796
273.1071527
272.9970852
272.9948079
273.0016267
273.0096995
272.9953112
272.9918355
273.0110291
273.0160812
273.0068937
273.0015289
273.0033705
273.0010315
272.9977831
273.0011127
273.0051907
273.0050364
272.9796188
268.3367034
280.578624
273.0892088
273.0071965
272.9996307
272.9961181
273.0062174
273.0013834
272.9967141
273.0066112
273.0122761
273.006978
273.0023158
273.0037578
273.0012652
272.996742
272.9977481
273.0023315
273.0056775
272.9844312
268.5492669
280.3164087
273.0821005
273.0062583
272.9996315
272.9903648
272.998158
273.0079728
273.0078381
273.0036311
273.0041484
273.0042796
273.0034133
273.0049296
273.0022503
272.996154
272.993963
272.9975285
273.0053676
272.9913913
268.9151472
279.1975695
273.0649042
272.9965866
272.9979816
272.9905081
272.9924382
273.0094758
273.0155447
273.0025614
272.9963346
273.0000791
273.0023728
273.0031846
273.0015352
272.9971494
272.9930476
272.9942715
273.0034215
272.9971518
269.2711309
278.9063346
273.0588912
272.9908308
272.9977893
272.9961255
272.9932215
273.0035734
273.0127023
273.0022738
272.9938876
272.998475
273.0008279
272.9978842
272.997967
272.9991944
272.9961369
272.9943473
272.9999331
272.9958316
269.7532119
277.5665203
273.0387636
272.9947925
272.9991425
273.0016399
272.9985431
272.9951969
273.0027292
273.0002426
272.9964712
273.0025435
273.0008123
272.992563
272.9931493
273.0006188
273.0019816
272.997671
272.9964444
272.9904214
270.1849115
277.3058251
273.0299093
273.0019487
273.0000253
273.0025657
273.0041206
272.9937001
272.99427
272.9959461
273.0012435
273.0080472
273.0026426
272.9924169
272.9908426
272.9988391
273.0048226
273.0019923
272.9961286
272.9857659
270.7079984
275.7652621
273.011668
273.0047029
272.9988929
272.9997913
273.0053136
272.9985928
272.9915385
272.9919378
273.0029449
273.0085719
273.0036868
272.9972746
272.9923748
272.9948848
273.0029265
273.004699
273.0002612
272.989412
271.1990442
275.6325155
273.0091184
273.0014137
273.0000881
272.9965476
273.0060251
273.0022582
272.9954603
272.9942429
273.0040211
273.0017371
273.0008933
273.0028839
272.9961514
272.9922841
272.999247
273.0054201
273.0049347
272.9952935
271.7460551
273.9648191
273.1407802
273.0042376
273.2176422
273.0192475
273.2375802
273.0366101
273.1735033
273.0197112
273.0914049
272.9978973
273.0265425
272.9995986
272.9998911
272.9800248
272.9821511
272.9912056
272.999429
272.9990783
272.2491458
267.1341648
283.8164518
270.1501797
286.3174068
273.5775171
286.7284433
275.5298319
284.8464796
275.0716623
281.485311
272.907241
277.7109078
270.4062182
274.5448026
268.4744312
272.8645364
267.9935422
273.194231
269.1390224
274.7479806
285.2451766
273.2260937
272.974251
272.9685409
272.9831136
272.9863549
272.9975473
273.011298
273.0133122
273.0164489
273.0221195
273.027705
273.0355602
273.0391255
273.036517
273.0268438
273.0177703
273.0203222
272.9689675
266.3289519
285.2901025
273.2117211
272.987128
272.9767447
272.9746595
272.9810717
272.9916429
273.0011385
273.0043142
273.0118478
273.0225327
273.0240639
273.0228883
273.0250037
273.0260359
273.0229171
273.0186235
273.0177618
272.9630947
266.2463028
285.2585312
273.194366
272.9983236
272.9860153
272.9745449
272.9843588
272.9914121
272.9939772
273.0009692
273.0148871
273.0291297
273.026868
273.0183622
273.0172797
273.0201262
273.0228466
273.0227912
273.0192693
272.9628591
265.9939213
285.3867786
273.1814389
272.9959664
272.9879991
272.9794136
272.98953
272.9903526
272.9926536
273.0071468
273.0200644
273.0300717
273.0295464
273.0210294
273.0143705
273.014445
273.0203766
273.0231933
273.0175526
272.9618528
265.7967802
285.2740136
273.1804167
272.9908381
272.988248
272.9885098
272.9927764
272.9919447
273.0007519
273.0164794
273.0193786
273.022076
273.0253572
273.0248509
273.016115
273.0113654
273.0161973
273.0190969
273.0133493
272.9626955
265.419377
285.3908818
273.2046129
272.9892834
272.990335
272.9982409
272.992519
272.9947167
273.0132503
273.0238609
273.0158314
272.9877175
273.0133693
273.0239256
273.0196269
273.0119534
273.0118334
273.0123769
273.0077401
272.9664393
265.2677437
285.0664446
273.2115029
272.98703
272.9908884
273.0035175
272.9949895
272.9954104
273.0186675
273.0291954
273.005859
272.0293249
272.999957
273.0205828
273.0201369
273.0120193
273.0080806
273.0063611
273.0036625
272.9736706
264.9853968
285.0134551
273.2050161
272.9864153
272.9887524
273.004619
273.0043469
272.9976293
273.0136429
273.0283065
272.9333104
269.1666372
272.9485587
273.0153303
273.0168348
273.0092952
273.0046118
273.0023797
273.0023638
272.9812506
265.0265656
284.3067432
273.1698182
272.993692
272.9899264
273.0041005
273.0165499
273.0044344
273.0028914
273.0209262
273.0232494
272.6449748
273.0076723
273.0088323
273.0093266
273.0046493
273.0022724
273.0019122
273.0036082
272.9872022
265.018701
284.0494141
273.1563449
273.006106
272.9957547
273.0023732
273.0218499
273.0123594
272.9994522
273.0076702
273.0196064
273.0181637
273.0118616
273.0031162
273.0022488
273.0008957
273.0014099
273.0031955
273.0056653
272.9900645
265.3400029
282.9662556
273.1346516
273.0149502
273.0003376
272.9997712
273.0147457
273.0159258
273.0075229
273.003674
273.0105963
273.0185702
273.0103699
273.0036418
273.0008512
272.9992087
272.9997013
273.0021386
273.0062127
272.9925928
265.6625419
282.6511172
273.1363763
273.0091133
273.0024404
272.9983924
273.0011362
273.0132887
273.0215274
273.0134287
273.0057332
273.0040667
273.0052873
273.0092632
273.0055326
272.999731
272.9968449
272.9977103
273.0038044
272.992618
266.2582054
281.1419177
273.1072144
272.9931347
273.0022213
273.001286
272.9912477
273.0033777
273.0258906
273.0265532
273.0072165
272.9918707
272.9985105
273.0104168
273.0081811
273.0012779
272.9961263
272.9944265
272.9999126
272.9917326
266.8602081
280.7940566
273.0931554
272.9875649
273.0031161
273.0073385
272.9923545
272.991857
273.0178765
273.0277657
273.0104249
272.992121
272.9957703
273.0035152
273.0036965
273.0010914
272.9982558
272.9953906
272.9971001
272.9884254
267.6399925
278.929166
273.0507034
272.9980687
273.00378
273.0090985
273.0021188
272.990611
273.0037831
273.0124822
273.0091922
273.004061
272.9997455
272.9964197
272.9959724
272.9997442
273.0021951
272.9996963
272.9965451
272.9865207
268.4194639
278.6415505
273.0402249
273.0101802
273.0032553
273.0051515
273.0084983
273.0005772
272.9972523
272.9927063
273.0031789
273.0147088
273.0073254
272.9960387
272.992706
272.9979549
273.0034831
273.003092
272.9987232
272.9872664
269.2525695
276.5382871
273.0178746
273.0118861
272.9997898
272.9981181
273.0080456
273.0124204
272.9986866
272.9840306
272.9969635
273.0137081
273.0110827
273.0022977
272.9954322
272.9963452
273.000292
273.0029151
273.0031344
272.994857
270.1104878
276.471875
273.023948
273.004808
273.0010247
272.991445
273.0102657
273.0155195
273.0055397
272.9914829
272.9982798
273.0034893
273.0064924
273.0058153
273.0001266
272.9958475
272.9955951
273.0005461
273.0057029
273.0013901
270.9401648
274.2045468
273.2305716
273.0066227
273.3394049
273.0175099
273.3546147
273.0508481
273.2438179
273.0290537
273.0997487
272.9949488
273.0166468
272.9928703
272.9822643
272.9757836
272.9600302
272.9810959
272.9850823
272.9998437
271.7999979
265.8035378
286.7262257
269.5854349
289.9898437
274.0045358
290.2101159
276.5966068
287.0901915
276.0453985
282.0892591
273.3211957
276.7709532
270.1205131
272.3467984
267.6718243
269.9575872
267.367606
270.5910148
269.4445615
272.9774594
291.0063964
273.4245563
272.9812716
272.9728835
272.9950258
272.9847492
272.9899819
273.0373224
273.0568853
273.0149196
272.9946027
273.0381723
273.0672025
273.0282554
273.0088457
273.0351955
273.0368179
273.0232519
272.9530189
262.1562872
291.1663573
273.4199208
273.0063545
272.9952533
272.9830493
272.9807005
272.9960787
273.021008
273.0210272
273.0087386
273.015312
273.0346531
273.0330232
273.020634
273.0199189
273.0244527
273.0214074
273.0128199
272.9484242
261.9424823
291.2409878
273.408247
273.0185002
273.0033169
272.9805054
272.9928441
273.0077819
273.0018565
272.9937272
273.0195567
273.0418278
273.0263658
273.0076742
273.0229011
273.0336692
273.0175447
273.0111781
273.0114566
272.9591737
261.4752801
291.5621971
273.3992616
272.9992291
272.9861057
272.9878995
273.0129226
273.0130687
272.9860235
272.9891745
273.0428084
273.0581158
273.011871
272.9954281
273.0286244
273.0373109
273.010108
273.0062004
273.0155457
272.9742603
260.9324054
291.5991421
273.4035104
272.9840147
272.9751977
273.001649
273.0253499
273.0087425
272.983155
273.0045111
273.0533412
273.0059979
273.0063001
273.0018147
273.0349791
273.033824
273.0048572
273.0062635
273.0178972
272.9875395
260.2354152
291.8971283
273.441441
272.9901892
272.9836282
273.0103086
273.019595
272.9977135
272.987647
273.0223778
273.0174777
271.5885365
272.9986158
273.0101997
273.036727
273.0298662
273.0041577
273.0074688
273.0140905
272.9958131
259.6888256
291.5984234
273.4449076
272.9994032
272.9978833
273.0093188
273.0104476
272.9957184
272.9942611
273.0076021
271.933415
250.6907038
272.4929233
273.0049431
273.0312716
273.026949
273.0059813
273.0061608
273.0066003
273.0026937
259.2075354
291.5687425
273.4235823
273.0069988
273.0056415
273.0034739
273.0094469
273.00938
273.0034101
272.9438655
269.565566
235.9517708
270.1503728
272.954674
273.0219084
273.0233188
273.0056704
273.0013673
273.0004362
273.0131338
259.0529816
290.6402373
273.3596983
273.0121391
273.0062342
272.9989157
273.0180939
273.0290506
273.0143063
273.0041133
272.5485807
260.5056193
272.6709324
272.9969187
273.0122665
273.0175068
273.0022005
272.9962781
272.9987134
273.0247905
259.1297468
290.1988567
273.337142
273.0137544
273.0034772
273.0003486
273.0243162
273.0390825
273.0198883
272.9982948
273.0057759
272.3124054
273.0260428
272.9954228
273.0043789
273.010974
272.9989072
272.9944286
272.9998788
273.0324279
259.5739003
288.6280398
273.2970249
273.0115799
273.001845
273.006877
273.0209902
273.0306344
273.0204699
272.9993974
273.0092019
273.013958
273.0167313
272.9938021
273.0002666
273.0063254
272.9990973
272.9958428
273.0002698
273.028574
260.2601065
288.0158176
273.2951286
273.0050794
273.0029633
273.0132163
273.0119677
273.0111349
273.0184055
273.0138982
273.0142308
273.0160938
273.0044014
272.9973376
273.0008013
273.0048327
273.0021793
272.9985175
272.9980503
273.0153921
261.2695
285.7162644
273.2294238
272.9962292
273.0044621
273.0175919
273.0069853
272.9931965
273.0127811
273.0322898
273.0248858
273.0040375
272.9952617
273.0019317
273.0037921
273.0041235
273.0045335
273.0012846
272.9951605
272.9996928
262.4504335
284.943382
273.1907395
272.9972247
273.0055327
273.0182645
273.0099115
272.9884608
273.0084247
273.0393924
273.0293155
272.996116
272.9930748
273.0067361
273.0054445
272.9994398
273.0030456
273.0032692
272.9957871
272.9898786
263.8412665
282.1375634
273.1032731
273.0091143
273.0042661
273.0097156
273.0130189
273.0002781
273.0066262
273.0241224
273.0198236
272.9973599
272.9988487
273.0115575
273.0041917
272.9925963
272.9974146
273.0037758
273.0006521
272.9907582
265.2965835
281.4927005
273.0841631
273.0182635
273.0031986
272.9984776
273.0083338
273.0162712
273.0115542
273.0002443
273.0022502
273.0025784
273.0076441
273.013521
273.0028285
272.9894362
272.9915121
273.0008632
273.0053492
272.9964435
266.7348565
278.3969184
273.0435657
273.0118603
273.0022895
272.9957263
273.0015077
273.0206638
273.0151826
272.9899501
272.9910269
273.0031968
273.009453
273.0097437
273.0029459
272.9951965
272.9903642
272.9950985
273.0048239
273.0027865
268.2501317
278.1720935
273.054832
273.0010377
273.0123255
272.9993239
273.0126282
273.0150333
273.0184423
272.9962622
272.9968778
273.0062369
273.0065639
272.9986805
273.0034755
273.006737
272.9938182
272.988916
273.0004554
273.003608
269.5712443
274.8362568
273.3675558
273.0141917
273.590929
273.0792626
273.6294734
273.1438202
273.4217528
273.0998532
273.1774
273.0232296
273.0283228
272.9609166
272.9594222
272.9810993
272.9516655
272.9860525
272.9708881
273.0062575
271.0611851
265.2358041
290.3348635
270.8804792
295.5168795
277.8724611
296.3000312
282.0397319
291.9025112
280.2599314
284.6916485
274.9682211
277.3075338
269.1774088
271.2453469
264.6177993
268.1487067
263.2869692
269.741407
266.2390242
273.8329921
296.5559344
273.669858
272.9972457
272.9720608
273.021788
273.0122746
272.9768953
273.0070755
273.0437203
273.0387306
273.023008
273.0250957
273.0338153
273.0303837
273.0175478
273.022704
273.0386473
273.0301881
272.9588322
256.8991973
296.9629781
273.6878651
273.0170874
273.0014494
272.9931199
272.9903653
272.9891162
273.016805
273.0366411
273.0259474
273.0162191
273.0233913
273.0279146
273.0203908
273.0151957
273.0163163
273.0162602
273.0118481
272.9587313
256.5374044
297.1911803
273.6902447
273.0254367
273.0145654
272.9821782
272.9922547
273.0177443
273.0281769
273.0285972
273.0196271
273.0172548