/*--------------------------------*- C++ -*----------------------------------*\
| =========                 |                                                 |
| \\      /  F ield         | OpenFOAM: The Open Source CFD Toolbox           |
|  \\    /   O peration     | Version:  5.x                                   |
|   \\  /    A nd           | Web:      www.OpenFOAM.org                      |
|    \\/     M anipulation  |                                                 |
\*---------------------------------------------------------------------------*/
FoamFile
{
    version     2.0;
    format      ascii;
    class       volVectorField;
    location    "7.6";
    object      U;
}
// * * * * * * * * * * * * * * * * * * * * * * * * * * * * * * * * * * * * * //

dimensions      [0 1 -1 0 0 0 0];

internalField   nonuniform List<vector> 
30538
(
(-0.09906210656 0.003181106125 0.002449468534)
(-0.07884368628 0.001385018828 0.01197583524)
(-0.07233892137 0.001137579407 0.0053538551)
(-0.03836656159 -0.0006574470597 0.01005076172)
(-0.03269027604 0.003675585593 0.01354173798)
(0.006315138101 0.001006564784 0.01725510651)
(0.006809493539 0.002249379117 0.01496237262)
(0.03480734368 0.002632460623 0.01706453938)
(0.02944900088 0.008879532937 0.01942505901)
(0.0645213844 0.007658786396 0.01982841057)
(0.06059825532 0.0006855510818 0.01354562472)
(0.07126982656 -0.00781535912 0.009184568498)
(0.02995650084 -0.004828363633 0.01000880505)
(0.03528786744 0.002522615648 0.01470730303)
(0.02334166433 0.007715773073 0.0118972007)
(0.03708180006 0.002852007991 0.005882136123)
(0.006773258351 -0.002788736281 -0.0002802080591)
(-0.009600533732 -0.007113414798 0.0002786818892)
(-0.03496294702 -0.006467985274 5.365384048e-05)
(-0.04217600451 -0.004220457698 0.001179978857)
(-0.09574745576 0.007838282626 0.001010612095)
(-0.08021775043 0.00450680415 0.009908052378)
(-0.0738499151 0.006867261743 0.007846540705)
(-0.03652033271 0.002988391091 0.01265836137)
(-0.03155756653 0.01051757869 0.01295505967)
(0.005320066443 0.005297377007 0.01668870877)
(0.00793147 0.006598427324 0.01513333704)
(0.03954576355 0.007803780374 0.01600057938)
(0.03297864623 0.01917904211 0.01680512501)
(0.05881023445 0.01716441559 0.01804197894)
(0.04963193797 -0.0001472134643 0.01525570894)
(0.06737892835 -0.01741349334 0.01203249921)
(0.03721917078 -0.01328981673 0.01057489428)
(0.04413133032 0.004226503333 0.01240224048)
(0.02362877645 0.01402050281 0.009786939418)
(0.0295538564 0.003494416517 0.005768364162)
(-0.0001746821564 -0.009102884156 0.001164820855)
(-0.01219005335 -0.01604336823 0.001719456503)
(-0.03297917782 -0.01359294355 0.001166266624)
(-0.03469663986 -0.008208600992 0.001766653575)
(-0.09003007633 0.01062971983 -0.001593832874)
(-0.0794410265 0.00753461237 0.007022781964)
(-0.07343151596 0.01833934265 0.009106530585)
(-0.03577677632 0.01135532707 0.01501977497)
(-0.0311042622 0.02192345024 0.01146876298)
(0.003560236111 0.01411751183 0.01548987544)
(0.008563363875 0.01939189177 0.01449050391)
(0.04372837411 0.01371871651 0.01421585225)
(0.03598856451 0.02423171005 0.01242268714)
(0.05102668688 0.01709401478 0.01512135193)
(0.03617679152 0.003414678876 0.01571145877)
(0.06205171137 -0.01617554181 0.01511674938)
(0.04515820064 -0.0109854539 0.01032064958)
(0.05452558412 0.001184687743 0.009121749833)
(0.02287879849 0.009554146161 0.006311508709)
(0.02064367137 -0.004799134198 0.005858008646)
(-0.006907144364 -0.01315593514 0.002564344997)
(-0.01279446879 -0.01609911899 0.003041528152)
(-0.02941391611 -0.007859197073 0.001461638604)
(-0.02710983613 -0.005177315355 0.002031369514)
(-0.08251963702 0.00880104877 -0.003263877548)
(-0.07484068555 0.007454366068 0.004136048958)
(-0.07089980257 0.02508610962 0.009709621614)
(-0.03408520209 0.01797369199 0.01611471844)
(-0.02949153165 0.02996528338 0.01051352047)
(0.003507078051 0.0236592238 0.01400888861)
(0.007624241352 0.03234753888 0.01469306073)
(0.04301339021 0.02057564579 0.01376537493)
(0.03526128579 0.02155045796 0.0101154348)
(0.04425962308 0.01220523443 0.01257865775)
(0.02613297986 0.008013092073 0.01625929717)
(0.05723716739 -0.00468114706 0.01730243294)
(0.04944506664 -0.003860895847 0.01064076827)
(0.05859710952 -0.003062035369 0.006336244663)
(0.01936266315 -0.00248319004 0.004459735094)
(0.01351225185 -0.01602548896 0.006403353717)
(-0.008180522777 -0.01618481328 0.00433545411)
(-0.008436408993 -0.01168699416 0.003098106132)
(-0.02507892232 0.00249127541 0.000582772131)
(-0.02598697816 0.001414993421 0.001028223998)
(-0.0781112407 0.006944229286 -0.003560683311)
(-0.06809385827 0.003857844286 0.004420143861)
(-0.06572892486 0.03040340883 0.008169941523)
(-0.03246715155 0.02281778245 0.01533467334)
(-0.02693560736 0.03904600749 0.008902388627)
(0.005200605313 0.0314272768 0.01184587619)
(0.006378870168 0.04679737964 0.01297463902)
(0.03619910006 0.028117712 0.01337396429)
(0.02999612828 0.02217138881 0.007659574008)
(0.04158459455 0.007220603972 0.00954444617)
(0.02419352412 0.01712259677 0.01225710824)
(0.05368641237 0.01031889564 0.01603677553)
(0.046267278 0.007702496785 0.008308996929)
(0.05547371712 -0.007277548437 0.004492380506)
(0.01364580652 -0.01043555561 0.002885373524)
(0.01102257582 -0.02191434746 0.007326351451)
(-0.003920404494 -0.0132344314 0.004821731782)
(0.0004382114131 -0.008472064607 0.002270038944)
(-0.01985550967 0.009086244605 -0.002063315826)
(-0.03044621406 0.003453841297 -0.0004499757347)
(-0.07454420028 0.008361412831 -0.00113126413)
(-0.058344924 0.002041355908 0.007071097259)
(-0.05736564595 0.03258370063 0.006743310312)
(-0.028129494 0.0253171357 0.01302574262)
(-0.0233203806 0.04561146694 0.008871514051)
(0.008932852763 0.0345613625 0.01039326583)
(0.005271212335 0.05363580296 0.01218517409)
(0.02576226904 0.03323435058 0.01389464144)
(0.02042038527 0.02616540624 0.009103414242)
(0.04083594885 0.007163703684 0.008524977145)
(0.0282511788 0.02088157699 0.008782952404)
(0.05058106376 0.01638097875 0.01243023177)
(0.03702390719 0.01230900772 0.007075286742)
(0.04573929933 -0.01121745772 0.004346016101)
(0.00900879485 -0.01320588236 0.004000666805)
(0.01156208867 -0.01915989463 0.007889086822)
(0.001318410122 -0.00766875943 0.005257539452)
(0.007366566321 -0.009605547527 0.001400373251)
(-0.01635761656 0.003405898761 -0.003879898961)
(-0.03547138774 -0.001820822658 -0.001686088254)
(-0.07048783905 0.01464003689 0.0003680078211)
(-0.05100217239 0.003925000842 0.009418686775)
(-0.04913065765 0.03702392684 0.003610841605)
(-0.02346412049 0.02907454214 0.009660914613)
(-0.02034194233 0.05379495296 0.007226674255)
(0.0108435397 0.03610687805 0.00923843955)
(0.00542954562 0.05643871526 0.008494216236)
(0.01694033007 0.03563634808 0.01210696316)
(0.01151791841 0.03833984021 0.008354575103)
(0.03798323677 0.01321039489 0.00782419604)
(0.03065526181 0.02329602874 0.003159337383)
(0.04762612622 0.01051532302 0.00791065888)
(0.02679465547 0.01021139232 0.003946006205)
(0.03738642144 -0.01460743912 0.005073910206)
(0.008064644665 -0.00814571792 0.003557578034)
(0.01490494396 -0.01120208237 0.007045922429)
(0.0029100487 0.0001785949163 0.003780984123)
(0.00827859472 -0.01431695361 0.001462948576)
(-0.0141587715 -0.009244559933 -0.004070392781)
(-0.0321207822 -0.01151712447 -0.001476691379)
(-0.06119701085 0.02104476554 0.001067014743)
(-0.04252356417 0.006361504404 0.008990061055)
(-0.03933579384 0.04098672991 0.002063587255)
(-0.0165068824 0.03047192596 0.006562079802)
(-0.01821592447 0.05744441824 0.006894943382)
(0.01075849904 0.03434171897 0.009697935384)
(0.004916818738 0.05254915322 0.00713109159)
(0.01312230517 0.03251241867 0.009902383939)
(0.004486682651 0.04879436692 0.009508309299)
(0.03033817661 0.02061330613 0.009163181957)
(0.0263373385 0.02567333065 0.002055350592)
(0.04129204201 0.001122033762 0.005830741999)
(0.01931785904 0.00425855676 0.004677330537)
(0.03270120771 -0.01761701375 0.006166340997)
(0.01142426128 -0.003789330299 0.004044909988)
(0.01742815468 -0.00644209286 0.004743563849)
(-0.0008743708678 0.002893524412 0.002610304496)
(0.000722650409 -0.01952752231 0.002360860177)
(-0.01421231991 -0.02005532426 -0.00132319472)
(-0.0212966244 -0.01771698024 -0.0001129524331)
(-0.05090727605 0.02424703686 -0.0008267843887)
(-0.03680840844 0.008396833965 0.006976987091)
(-0.03185525552 0.04575480975 0.0007275249492)
(-0.01207717066 0.03019740306 0.004590607368)
(-0.0174403948 0.05948927706 0.004434253218)
(0.007323518232 0.03485662565 0.009918935478)
(0.004111852204 0.05252665003 0.004136697478)
(0.01445945782 0.03020301849 0.005848803311)
(0.002997815306 0.05703931466 0.005745342142)
(0.02176400329 0.02802855823 0.008595309388)
(0.0168826561 0.03281423016 0.0005044296196)
(0.03241607324 -0.0005796630676 0.005074684072)
(0.01360696385 0.006366203589 0.003456704067)
(0.03165051055 -0.01671415827 0.006586357717)
(0.01594908133 -0.0009398032429 0.001653452888)
(0.01965724348 -0.01004204737 0.001665863722)
(-0.006401533953 -0.0004102628698 0.0003094780367)
(-0.007963371364 -0.02207072863 0.003876009)
(-0.01273297492 -0.01796139328 0.001909354446)
(-0.005856767092 -0.01635824557 0.001597365637)
(-0.03794476419 0.02346810461 -0.002000565208)
(-0.02713522905 0.006418245614 0.004866679862)
(-0.02369783573 0.04678156685 0.002090339121)
(-0.007049337129 0.0229896971 0.004526914358)
(-0.01476764296 0.05530325615 0.003730810285)
(0.005775105953 0.03236826353 0.009985197793)
(0.001586403746 0.05282310451 0.004925104159)
(0.0165127538 0.02491044673 0.004452708256)
(0.002832176544 0.05345581949 0.004722853158)
(0.01335224389 0.02586947732 0.0078757681)
(0.006096988054 0.03623620371 0.003179503134)
(0.0225424466 0.001416571296 0.005716658489)
(0.007960572137 0.0116415604 0.005585003206)
(0.02749498232 -0.0147097311 0.006799828344)
(0.01615776859 -0.004842137178 0.001664545623)
(0.01782650829 -0.02230241056 0.0001094438047)
(-0.009402828792 -0.01026755348 0.0002111949211)
(-0.01175008169 -0.02105609461 0.005187765378)
(-0.01007004005 -0.005367050952 0.00416952066)
(0.002570481066 -0.009292778981 0.002386778106)
(-0.02962167734 0.02192947113 -0.002991618123)
(-0.02011456057 0.005245805568 0.004048080219)
(-0.0199115518 0.04646526601 0.001861015796)
(-0.006280874929 0.01745539342 0.004689496584)
(-0.01068249008 0.05274122443 0.001128636233)
(0.005535033665 0.03284710863 0.007140426922)
(-0.00123316261 0.05716982946 0.003301861091)
(0.01514532933 0.024044961 0.003672788357)
(0.003526935392 0.04828466121 0.0007142107699)
(0.009729480351 0.02152708815 0.005005026303)
(-0.0004242285639 0.04029422569 0.0009990962701)
(0.01502248349 0.006909163414 0.005072201337)
(0.002251362155 0.02058000895 0.003507022269)
(0.01994620253 -0.009676624176 0.006094530153)
(0.01064782669 -0.006550466934 0.001039900933)
(0.01578770825 -0.03169733301 0.0005387374593)
(-0.005480450564 -0.01596489828 0.0003095694869)
(-0.004488603235 -0.01657049175 0.005251186082)
(-0.004314169953 0.00893421328 0.003660363571)
(0.004086226233 -0.002578761127 0.002334611622)
(-0.01856880265 0.02372415903 -0.00186491453)
(-0.00960556495 0.002551483402 0.003511815411)
(-0.0147994949 0.04444334906 0.001576708253)
(-0.002844242952 0.01039145164 0.004816782836)
(-0.003740922348 0.04896810997 0.0005746889664)
(0.008847258965 0.02543932641 0.003423222585)
(-0.004744056212 0.05482231917 0.003923705336)
(0.01047390379 0.01743376532 0.00556510687)
(0.0008808522137 0.03966888103 0.002149733805)
(0.007832213484 0.01077907592 0.00375076279)
(-0.004260404023 0.03640429268 0.002644470442)
(0.00857822861 0.004517035975 0.004643488589)
(-0.003690331125 0.02141520303 0.004133523743)
(0.008250001942 -0.008891394423 0.005605369025)
(0.0006670529551 -0.004510740568 0.003612618541)
(0.011129518 -0.03266847762 0.002759170543)
(0.00132353358 -0.01481456384 0.001700174793)
(0.005923464066 -0.01327645091 0.003822704505)
(-7.350279099e-05 0.01441602137 0.001913763494)
(-0.002287337896 -0.001365832079 0.001522011795)
(-0.01094452475 0.02662893183 -0.001398109781)
(-0.005274704886 0.002070446007 0.002444246661)
(-0.01405978296 0.04302435244 -0.001549400612)
(-0.003352248182 0.009453508976 0.003664830517)
(9.779055358e-05 0.04682548309 -0.001418317431)
(0.009623159651 0.01676680499 -0.0007093645967)
(-0.006977131496 0.04817700898 0.0008155316144)
(0.004688769544 0.01359834867 0.005454236118)
(-0.001337303736 0.03795785764 0.0003438571248)
(0.007525696016 0.008049828555 0.0014803746)
(-0.004877124884 0.03454047468 -0.0003749607294)
(0.004374455323 0.002481984897 0.002864832598)
(-0.007138833058 0.01956241804 0.0009628939063)
(0.00154990902 -0.007676351808 0.004041161084)
(-0.006118003606 0.004848540326 0.003704904761)
(0.008522379569 -0.02116807086 0.004118507068)
(0.008171221869 -0.005185577094 0.001363458553)
(0.01624869823 -0.01230492539 0.001366750931)
(0.004202041933 0.008591329655 -0.0006936384084)
(-0.005446089393 -0.006645454676 0.000934781822)
(0.001815552666 0.02924126658 -0.0008777648297)
(0.002183251217 -0.004407857921 0.0004842489018)
(-0.009288793854 0.03985583265 -0.002672555465)
(-0.0004364940285 0.004107083363 0.002851731041)
(0.001582124521 0.04018518575 -5.877835942e-05)
(0.009769293677 -0.0006207047081 -0.000796458708)
(-0.007060347031 0.03396162569 0.00095518454)
(0.00349678968 0.002460813726 0.005332278327)
(-0.003203596216 0.03474924181 0.00171330237)
(0.005532701661 0.003577798946 0.001194818633)
(-0.008219971588 0.02960066963 0.001402697478)
(-0.002041468264 -0.004902251482 0.002962666767)
(-0.01082166277 0.01320192925 0.00183641532)
(-0.002207493545 -0.01181210919 0.003263146403)
(-0.008857586761 0.01113012052 0.004448881655)
(0.004089462283 -0.008835641056 0.004307050756)
(0.007471299906 0.005200077321 0.001255411398)
(0.0157339161 -0.01533125086 -0.0004794578319)
(0.004026704055 -0.003844636636 -0.001489026)
(-0.003972985928 -0.0141341418 0.0008314879722)
(0.006644074083 0.02651493533 -0.002029329404)
(0.00248659786 -0.01183593745 -0.001312395512)
(-0.007776118882 0.03447284235 -0.003685839044)
(-0.003376565617 -0.000209654211 0.001232780049)
(-0.003052148543 0.03361538386 5.667478224e-05)
(0.005190689535 -0.01061623993 0.0005627436972)
(-0.004897545478 0.02467194157 -0.0005528194263)
(0.005473566183 -0.003389941992 0.002442043294)
(-0.0007058478138 0.03247145061 -0.001478372599)
(0.004008515653 0.002926697177 -0.0005352924204)
(-0.01088099968 0.02742525518 -8.375433879e-05)
(-0.007230285305 -0.005784196625 0.003039490294)
(-0.01197860317 0.01276532913 0.0009369831904)
(8.168202415e-06 -0.01178379252 0.002220542857)
(-0.004006691523 0.01442489093 0.002163985528)
(0.00435609328 -0.0007864825971 0.002346154216)
(0.003504921929 0.01274610096 -0.0005537153631)
(0.009943566645 -0.01614316728 -0.001181859504)
(0.005150943297 -0.01052455578 -0.0008057177637)
(0.006917243126 -0.01743279296 0.001330340557)
(0.01228152242 0.02253910347 -0.002354229938)
(0.007992453063 -0.02321700345 -0.001920361555)
(-0.0008329565048 0.02718086058 -0.002205601378)
(-0.001312910156 -0.01137572136 0.0005024938981)
(-0.005573969527 0.02782738963 0.002053757104)
(0.003428244091 -0.01875039099 0.003857841265)
(-0.002055938226 0.01974398102 0.001957015246)
(0.009222374167 -0.01193659519 0.001617092004)
(0.001092209381 0.02414416252 -0.001148275414)
(0.002086057397 -0.007334879014 -0.0001676981849)
(-0.01439626202 0.02083945259 0.002045931465)
(-0.01243032119 -0.008520333351 0.004406042815)
(-0.01502513609 0.01555890196 0.00366112828)
(-0.001117658643 -0.01089329765 0.002875619132)
(-0.001062560695 0.01342098019 0.001691483163)
(0.002899400641 -0.002272094 0.0008267490323)
(-0.003427745085 0.01480497098 -0.000845838234)
(-0.0006518819572 -0.01365287945 -0.0001078920362)
(0.003217104201 -0.006023925836 0.001517259373)
(0.01543896424 -0.01494536364 0.00203131161)
(0.006277624657 0.01835707122 -0.002707573464)
(0.005906556734 -0.02786208221 -0.001361231626)
(0.000830014215 0.01949150239 -0.002319206011)
(-0.003170228495 -0.01827781155 -0.001120849674)
(-0.00810112905 0.02483281395 0.0004954302799)
(-0.0005367422181 -0.01790638904 0.003635953979)
(-0.0001724549858 0.02049986848 0.001271774492)
(0.008792721435 -0.01400917859 -0.0005174347382)
(0.00241104889 0.01657723471 -0.00306321949)
(0.001795623507 -0.015529604 -0.001009681625)
(-0.01175743403 0.0146160607 -3.496078217e-05)
(-0.01098111395 -0.008270428624 0.003257250547)
(-0.01363317671 0.0213687059 0.002944945411)
(-0.001564111526 -0.004621431795 0.002557749019)
(0.002098443391 0.01442786397 -0.0002378525271)
(0.00535286717 -0.004256854688 -0.0009095437348)
(-0.00463653482 0.01526700026 -0.001524281087)
(-0.004743151689 -0.006988810437 0.001284838794)
(0.004355657432 0.005177029477 0.003431877951)
(0.02132720046 -0.008746923387 0.002381337189)
(0.005739984058 0.01945057082 -0.001418664567)
(0.008856325961 -0.03033163617 0.0001136503685)
(0.006167242116 0.0147515493 -0.001229166491)
(0.002277929883 -0.02722991732 -0.001195875255)
(-0.005153644302 0.02105415568 0.0002921596607)
(0.0003317894412 -0.02024712515 0.003336100608)
(0.0005832590967 0.01990698338 0.002445116134)
(0.006606989164 -0.02057972903 -5.564596768e-05)
(-9.010588955e-05 0.009648313404 -0.0004091904547)
(0.000789778065 -0.02523377397 0.0005709757558)
(-0.009316286841 0.007528335135 0.0005482392017)
(-0.007689142438 -0.01189458785 0.00221270146)
(-0.01244131201 0.02198134573 0.00335578987)
(-0.006094805172 -0.0009846491933 0.002453012363)
(-0.0008224561999 0.01675088144 0.0002154542264)
(0.00351512949 -0.006113101117 -0.0008944777995)
(-0.005437695678 0.01499031679 -0.0006215845954)
(-0.007763452728 -0.0003894342199 0.002484485832)
(0.002142589641 0.01685516627 0.004598295971)
(0.01753953752 -0.003922399301 0.002161763191)
(-0.001270492053 0.02092312799 -0.0003567581624)
(0.002497816383 -0.02663088707 0.0006048985928)
(0.003072420675 0.01291014302 -0.00160458803)
(0.0009944031129 -0.02998119316 -0.002083308628)
(-0.003138695774 0.01576895744 -0.001924526498)
(-0.001395737042 -0.02323668081 0.0002382220482)
(-0.0004078641081 0.01686770474 -0.0001835547105)
(0.001755667412 -0.02406952188 -0.001387656597)
(-0.0008088034117 0.006954844968 -0.0006298595417)
(0.000428430868 -0.02615861272 3.783380834e-05)
(-0.00231728562 0.0055893062 -0.001909181605)
(-0.0008146079995 -0.01476963555 -0.0008774686291)
(-0.005963634667 0.0177038013 0.0001702653477)
(-0.005357364878 -0.001960748953 0.0009400332897)
(-0.001550943965 0.01944254007 -0.0006301586849)
(0.004086281056 -0.004391852783 -0.0008084527321)
(-0.0005108930222 0.01518599212 -0.0006886691652)
(-0.00333525977 0.001458594586 0.001825062556)
(0.002065875804 0.02309077484 0.003243936237)
(0.01186570784 -0.002175234832 0.001492180942)
(0.001895727609 0.0248078747 0.0009780687262)
(0.0036536989 -0.02553062712 0.0001881373611)
(0.004051264784 0.01685496419 -0.0001859759229)
(0.004691717727 -0.0350271329 -0.0001591855418)
(-0.0002570808382 0.009739051294 -0.0004958600866)
(0.001209415926 -0.02959717613 0.0007694814781)
(-0.0001633186095 0.01000568609 0.0005844423242)
(-0.0005047793047 -0.02918690973 0.0001869289457)
(-0.001797383197 0.007472451823 0.001379108219)
(-0.0003181304051 -0.02614368288 0.0008220732237)
(-0.001347506992 0.006798441041 3.723338526e-05)
(0.0009195636273 -0.02103902163 -9.754889035e-05)
(-0.00328986653 0.006831721573 0.0001801512498)
(-0.004792984629 -0.007404623805 0.0005039579431)
(-0.002436958301 0.02130247724 0.0005898917284)
(0.0004364469929 -0.001509669748 -6.779750108e-05)
(-0.001354408738 0.01492709544 -6.201407546e-05)
(-0.002354827544 0.0006662812586 0.001162937782)
(-0.0005161530519 0.02233394555 0.001609293609)
(0.002343805444 -0.002105775517 0.00048259273)
(-0.079106376 0.0004057740062 0.006113011727)
(-0.07521840132 -0.00258141872 0.03164576874)
(-0.07488353692 0.005837916666 0.01694449857)
(-0.02734485435 0.004244843343 0.03180043673)
(-0.02301107987 0.002533720595 0.03695232812)
(0.008262023582 -8.175239178e-05 0.04905471097)
(0.006491628837 0.002567961518 0.04371058454)
(0.04081499211 0.000608040891 0.05266364705)
(0.03316084744 0.003891915169 0.05339424463)
(0.05682973676 0.004246399701 0.05579425597)
(0.04631827943 0.003879487837 0.04099481099)
(0.06669869019 -0.0024143814 0.03083944103)
(0.03726759225 -0.003788168913 0.03176579335)
(0.0378750502 -0.001899657509 0.03770198199)
(0.01153285549 0.003680254232 0.03527840134)
(0.02067667739 0.002574795706 0.01513343593)
(-0.0007154487006 -8.101924587e-05 0.005276450456)
(-0.009359392333 -0.00441258924 -0.002841274477)
(-0.0336484205 -0.004389709527 0.004561725697)
(-0.04419331316 -0.003140688115 -0.001208637306)
(-0.08059152192 0.000112942657 0.002215640634)
(-0.07140304114 -0.004973267571 0.02679847742)
(-0.07008150128 0.01395249959 0.02312266598)
(-0.02965783409 0.0123731393 0.03853492586)
(-0.02605217204 0.006519909464 0.0352077048)
(0.008292408237 0.00190239463 0.04861562518)
(0.006969778485 0.005678924096 0.04379763611)
(0.04179333592 0.002378093767 0.05013588806)
(0.03571229521 0.005853857697 0.04671797409)
(0.05685333594 0.008187179165 0.05054006789)
(0.041561622 0.003908330352 0.04300786768)
(0.06126992703 -0.006165512362 0.03645674347)
(0.03760736395 -0.01275582355 0.0319791845)
(0.04312484555 -0.006428095577 0.03190055968)
(0.01468984327 0.003366584193 0.02950363236)
(0.01796504333 0.003346900592 0.01481118479)
(-0.005667662056 -0.003748493983 0.008846399091)
(-0.01241137096 -0.01086725612 0.0007931357143)
(-0.0327177575 -0.01097614596 0.006769177359)
(-0.03897597659 -0.006622827707 -0.0002184146227)
(-0.08232676498 0.002529710978 -0.003848750542)
(-0.06553402552 -0.00346392985 0.01903128719)
(-0.06262996695 0.02183188681 0.02583245907)
(-0.03260448379 0.01795859931 0.04280778172)
(-0.03035025099 0.0172462581 0.03246690537)
(0.007670049419 0.009012555713 0.04744752233)
(0.006829397991 0.01854013009 0.04344389007)
(0.04096998741 0.009451535034 0.04700166831)
(0.03720538645 0.01151501081 0.03769426384)
(0.05553016268 0.006682751673 0.04468107184)
(0.03611539524 0.005303141002 0.04392267576)
(0.0549676464 -0.006205330269 0.0436046337)
(0.03703522308 -0.01086812873 0.03235559943)
(0.04921388709 -0.01034589615 0.02493523451)
(0.01841964026 -0.0005734700483 0.02169582473)
(0.01559882598 -0.003637715907 0.0139780424)
(-0.01075804414 -0.007154790733 0.01265849902)
(-0.01451571803 -0.01350502937 0.004133236514)
(-0.03057314324 -0.008980437006 0.007916936567)
(-0.03208528754 -0.006596221973 -0.0001948321488)
(-0.08099385403 0.005099918968 -0.008959577266)
(-0.05788941031 0.002505376462 0.01153543852)
(-0.05482151341 0.02323587296 0.0243181009)
(-0.03298383077 0.01863916373 0.04355193428)
(-0.03222567012 0.0250488109 0.02930549523)
(0.009166682244 0.01673651877 0.04449082259)
(0.007274366732 0.02943896605 0.04143213328)
(0.03689946993 0.01896623742 0.04452149666)
(0.03367408976 0.01250177717 0.03084357498)
(0.05259191545 0.00156651479 0.03757499792)
(0.03240143458 0.001428016267 0.04137309836)
(0.04989055956 -0.002944341587 0.04678572431)
(0.03466237071 -0.007651988576 0.03138901966)
(0.05036782968 -0.01185309323 0.01894084689)
(0.01941514185 -0.009001707102 0.01575145458)
(0.01329949706 -0.01320634388 0.01429625743)
(-0.01265540958 -0.01189153961 0.01575200374)
(-0.01373727068 -0.01314190537 0.004972167169)
(-0.02768645356 -0.004118384019 0.005688879896)
(-0.02840912634 -0.003292931545 -0.002283534182)
(-0.07659110089 0.01103982799 -0.0080673422)
(-0.05279608522 0.009390939565 0.01231379108)
(-0.05109780976 0.02469779659 0.02002385526)
(-0.03145267679 0.01697636626 0.04043824737)
(-0.03153693497 0.03588304516 0.02729155268)
(0.010724401 0.02454271158 0.04030414588)
(0.008409195566 0.04200073798 0.03725080552)
(0.02908427996 0.02833964855 0.0441446276)
(0.02484946327 0.02021758402 0.02813306366)
(0.047846235 -0.0005404222251 0.03396996834)
(0.03286094085 0.002877734525 0.03187940777)
(0.04859815833 0.001002643647 0.043887194)
(0.0307066064 0.0009171528579 0.02841147415)
(0.04825590434 -0.01107753047 0.01649519377)
(0.01745692953 -0.01133179268 0.01366639876)
(0.01355483526 -0.01909629279 0.015775098)
(-0.01070895577 -0.01145743015 0.01753102262)
(-0.009030573597 -0.01170335491 0.003367823687)
(-0.02338658354 0.0007251106593 0.0008885141478)
(-0.02735157762 -0.001705740098 -0.005792293312)
(-0.06618196275 0.01589801212 -0.002177946743)
(-0.04816719254 0.01150114851 0.02085362014)
(-0.04934199135 0.02386924865 0.01528100195)
(-0.02526705383 0.01453201983 0.03573114345)
(-0.02673054925 0.04238918611 0.02566547885)
(0.01343621543 0.02956557069 0.03535397384)
(0.009966605347 0.0451078172 0.03073915824)
(0.02159728176 0.03078080236 0.04160453518)
(0.01320547801 0.02746162789 0.0281878622)
(0.04049089593 0.003847303944 0.02921020423)
(0.03342706691 0.003574743485 0.01776985256)
(0.04850990356 0.0008645161722 0.03192507829)
(0.02608742027 0.003979539205 0.02233161552)
(0.04169238809 -0.01017214241 0.01573767818)
(0.01375802338 -0.01196517531 0.01413521561)
(0.0131937759 -0.01976168311 0.01636658172)
(-0.007404881188 -0.00966250104 0.01666589856)
(-0.005118242063 -0.01117743874 0.001338919195)
(-0.02038451298 -0.0003888282126 -0.003161195307)
(-0.02823894153 -0.003803145326 -0.007850159383)
(-0.0569024701 0.01891048694 0.003084644613)
(-0.04699345145 0.007604751129 0.02652819776)
(-0.04877158364 0.02808789948 0.01023672579)
(-0.01859370858 0.01685370787 0.02906552231)
(-0.02078847067 0.05001752979 0.02278913705)
(0.01260198807 0.03474904261 0.03230462172)
(0.009275139844 0.04682500502 0.02340540281)
(0.01671442434 0.02799711961 0.03823846594)
(0.005747347067 0.03911905318 0.02881331528)
(0.03110176479 0.01438890826 0.03078459832)
(0.03070324009 0.01054366358 0.005438041495)
(0.04886547095 -0.002058208257 0.02267730521)
(0.02288159415 0.005663360352 0.01690161865)
(0.03695269445 -0.01121295836 0.01726198234)
(0.01068906826 -0.008069292795 0.01528300672)
(0.01515619725 -0.01721473253 0.01472270837)
(-0.004614632445 -0.004872685298 0.01397120072)
(-0.002465304774 -0.01252007232 0.0005178586022)
(-0.0179883159 -0.004370697376 -0.002816763874)
(-0.02487871956 -0.008540956298 -0.007248353173)
(-0.04723747116 0.01884609299 0.002584436733)
(-0.0414600906 0.001727344023 0.02561728744)
(-0.04258092453 0.03548266703 0.006453437274)
(-0.01000928545 0.02090540534 0.02239266472)
(-0.01394141778 0.05210050023 0.01838660173)
(0.01113735326 0.03558576626 0.03066095172)
(0.005176498617 0.04421236638 0.01763935987)
(0.016288897 0.02055031044 0.0298552756)
(0.003494666145 0.04385506266 0.02471935579)
(0.02043587429 0.02205386324 0.02759226759)
(0.02179012746 0.02069273755 -0.003378335031)
(0.04498315681 -0.00430752005 0.014968855)
(0.01965415161 0.003349223405 0.01269762635)
(0.03192952051 -0.01478399606 0.016740991)
(0.009539021939 -0.007388852083 0.01350895589)
(0.01542997138 -0.01666484488 0.009509630556)
(-0.004071016211 -0.003701353081 0.009250539667)
(-0.004761319307 -0.01495217743 0.001783265553)
(-0.01743542438 -0.008644204223 0.002045491082)
(-0.01955431017 -0.01184802914 -0.003464849181)
(-0.04223981798 0.01847816609 -0.002331370159)
(-0.03501497481 0.0005253605361 0.0180551431)
(-0.03505401135 0.04579152042 0.005411118186)
(-0.007093247692 0.02635708071 0.01696306703)
(-0.01025248933 0.05343884433 0.01328398268)
(0.00698003783 0.03535453054 0.03112055391)
(-0.001380072331 0.04826260326 0.01551448674)
(0.01662377269 0.0198037437 0.02347398181)
(0.00668796597 0.04795162876 0.01941315302)
(0.01481534043 0.0255247363 0.0283118254)
(0.0120820593 0.0350128473 0.004763830772)
(0.0365641315 -0.000861310443 0.01719128279)
(0.01555180199 0.008083837016 0.01432289708)
(0.02930534838 -0.01554622896 0.01757955472)
(0.009386562988 -0.005443660112 0.01137795104)
(0.01776933239 -0.01888341008 0.003947495205)
(-0.003399949351 -0.004942966511 0.005431914937)
(-0.005951080898 -0.01673343179 0.004389708018)
(-0.01568490582 -0.007457869097 0.00917836731)
(-0.01079810786 -0.01157737375 0.0004013762203)
(-0.03372955225 0.01941936863 -0.007363739985)
(-0.02194483815 0.0008177674011 0.01246409714)
(-0.02415799668 0.04895955327 0.006530183521)
(-0.004848156166 0.0231871447 0.01527114784)
(-0.007397004403 0.04900752541 0.009026509435)
(0.007408556958 0.02702143631 0.02921683617)
(-0.005860390142 0.05117275439 0.01499862875)
(0.01625031731 0.02074654647 0.0179420605)
(0.007432595455 0.04388369851 0.01025643858)
(0.0113566855 0.01898173821 0.02018585171)
(0.003152873081 0.03722025175 0.006834297582)
(0.02591325758 0.001338333276 0.01604507468)
(0.009354133173 0.0116938656 0.01365148645)
(0.02230056166 -0.0157461849 0.0158150667)
(0.007203990051 -0.00601311694 0.008918023834)
(0.01579841686 -0.02452685702 0.0006220596446)
(-0.00256081089 -0.01026184505 0.003641281158)
(-0.00652043958 -0.01849045137 0.006845144887)
(-0.01369704186 -0.002010583826 0.01292611834)
(-0.00647789397 -0.007895265897 0.00233391037)
(-0.02786895541 0.02226805692 -0.007643630519)
(-0.01388625957 0.002622415874 0.01010996918)
(-0.01904858923 0.04551403691 0.006734500203)
(-0.007267876229 0.01802983196 0.01458530363)
(-0.007371361724 0.04674643442 0.005768834169)
(0.008460956543 0.02027960457 0.02256545326)
(-0.005899056544 0.05522139429 0.01360247929)
(0.01168003674 0.02612802759 0.01786849182)
(0.005310672691 0.04338152069 0.006436628095)
(0.01018416091 0.01364341469 0.01549914384)
(-0.0003617204648 0.03931754863 0.009197826737)
(0.01848647297 0.004792600792 0.01640665738)
(0.003565916127 0.01778973088 0.01420275209)
(0.01670143866 -0.01207069479 0.01534422333)
(0.003200813204 -0.002882051884 0.01005914338)
(0.01476293791 -0.02674684475 0.002240604977)
(0.0008519763795 -0.01314155429 0.005155977411)
(-5.948944119e-05 -0.01918168579 0.006985347547)
(-0.008110247137 0.004596268551 0.01154913898)
(-0.004164061114 -0.004259396789 0.001384177691)
(-0.01606311667 0.02685512587 -0.004852726188)
(-0.005213543788 -0.0005475723473 0.0106895282)
(-0.01304287991 0.03797238517 0.003303742348)
(-0.004188457494 0.00845057085 0.01466993624)
(-0.005627570901 0.04414093543 0.003507377919)
(0.01336442319 0.01045887815 0.01223997257)
(-0.001863771176 0.05009005851 0.009611283443)
(0.00810273516 0.02078665372 0.01848321191)