/*--------------------------------*- C++ -*----------------------------------*\
| =========                 |                                                 |
| \\      /  F ield         | OpenFOAM: The Open Source CFD Toolbox           |
|  \\    /   O peration     | Version:  5.x                                   |
|   \\  /    A nd           | Web:      www.OpenFOAM.org                      |
|    \\/     M anipulation  |                                                 |
\*---------------------------------------------------------------------------*/
FoamFile
{
    version     2.0;
    format      ascii;
    class       volScalarField;
    location    "7.2";
    object      p;
}
// * * * * * * * * * * * * * * * * * * * * * * * * * * * * * * * * * * * * * //

dimensions      [1 -1 -2 0 0 0 0];

internalField   nonuniform List<scalar> 
30538
(
101288.4857
101275.4377
101286.7451
101286.9018
101280.4946
101276.6802
101279.0078
101277.5879
101276.5813
101281.5368
101292.0674
101300.191
101306.5079
101315.4667
101322.8248
101323.5976
101319.1994
101315.6419
101314.1275
101307.0555
101293.4018
101281.4498
101281.9548
101281.7729
101281.5092
101279.2169
101278.9935
101277.5008
101277.7909
101281.6747
101289.2984
101298.6484
101308.1061
101316.3362
101320.3015
101319.95
101318.3121
101317.9183
101316.5527
101308.3948
101300.0665
101290.0929
101280.1617
101278.148
101281.9691
101279.7862
101276.9331
101276.0981
101279.2455
101282.5902
101287.1324
101296.4226
101308.2272
101316.0181
101318.0108
101318.2024
101319.4353
101320.8648
101318.1541
101308.7592
101304.0411
101295.9242
101282.3899
101278.428
101281.8046
101278.0948
101273.2581
101273.5654
101279.63
101283.6158
101286.7766
101294.9119
101306.1786
101313.386
101316.2867
101319.3224
101322.5711
101322.2681
101316.5921
101306.7101
101301.3395
101293.19
101285.0988
101280.2086
101279.9108
101276.0526
101271.4715
101271.7225
101278.6615
101284.2859
101288.4586
101294.6897
101302.9323
101309.8459
101316.0124
101322.433
101325.0947
101320.531
101311.2662
101302.5397
101293.993
101284.1797
101285.1977
101280.7752
101277.3132
101274.8999
101272.3908
101271.5905
101276.5939
101283.309
101289.6031
101294.982
101300.5171
101307.3807
101315.7953
101323.3229
101324.0327
101316.1853
101304.8518
101298.5578
101289.4415
101278.3809
101283.9547
101279.8729
101275.9699
101275.0772
101275.0901
101272.7816
101274.8255
101281.0432
101288.7219
101294.92
101300.8137
101307.888
101315.5425
101320.5836
101319.4218
101312.0621
101302.6271
101297.9771
101290.6339
101279.3409
101281.8367
101277.8426
101275.4217
101274.9945
101276.5544
101274.5074
101274.4069
101278.6375
101285.8713
101294.1535
101302.7248
101310.4302
101314.9019
101315.7694
101314.0356
101310.5638
101305.5757
101300.842
101295.4236
101284.8707
101279.0864
101274.4452
101273.7394
101273.2675
101275.357
101275.3698
101275.5708
101277.361
101283.3099
101293.6542
101305.3523
101313.234
101314.775
101312.0185
101310.9187
101312.2089
101311.5123
101305.5844
101299.1843
101288.5498
101276.6216
101271.4961
101271.2248
101270.2502
101272.0078
101274.4828
101276.3033
101277.4001
101282.7273
101294.172
101306.5942
101314.1941
101314.7361
101311.2035
101310.8595
101314.5364
101316.0747
101308.8314
101299.3738
101288.6926
101276.0411
101270.4814
101269.693
101267.8183
101268.7793
101271.9126
101275.165
101277.3589
101284.2015
101295.7838
101306.7759
101313.3904
101314.6734
101312.6142
101312.7799
101315.0617
101315.9257
101308.928
101296.7626
101286.5976
101278.1173
101272.101
101270.1743
101267.5376
101267.0784
101269.0183
101272.63
101277.3337
101286.1191
101297.1915
101306.2717
101312.4784
101314.7407
101315.0912
101314.5329
101313.273
101311.3105
101305.6469
101294.721
101285.6148
101280.6237
101274.0377
101271.6269
101268.8909
101267.5173
101267.9072
101271.6457
101277.8579
101287.0222
101297.1938
101306.1019
101312.3293
101315.427
101316.8757
101315.2128
101310.6819
101305.6586
101301.5262
101294.748
101286.7426
101281.9589
101274.8537
101271.8122
101270.2435
101269.7545
101269.6439
101273.8956
101279.9075
101286.957
101295.3294
101304.9458
101312.2611
101316.6537
101318.2855
101315.5861
101309.2209
101301.8068
101298.6516
101296.2088
101288.8545
101281.8259
101274.366
101270.6854
101271.0744
101273.2504
101273.9222
101278.5312
101282.7183
101286.4977
101292.9731
101302.5854
101311.0704
101316.9887
101318.5967
101315.8831
101309.7539
101302.0865
101298.5007
101297.1116
101290.0046
101282.2439
101275.6531
101271.396
101273.0556
101277.394
101278.7775
101282.4231
101285.1546
101287.6546
101292.801
101300.0468
101308.4199
101315.3361
101317.5889
101315.2928
101310.647
101304.7122
101300.6518
101296.7357
101289.8312
101284.7035
101280.4867
101276.5633
101277.747
101281.6607
101282.9362
101284.4303
101286.2315
101290.7109
101295.6009
101299.1854
101305.3962
101312.0258
101314.7182
101312.8703
101310.0386
101307.7214
101303.269
101295.5899
101289.7764
101289.1823
101288.4366
101285.5607
101285.2332
101286.0485
101286.5282
101285.7984
101287.1666
101295.1896
101300.1887
101300.4369
101303.5491
101308.1878
101310.4941
101308.7279
101307.4906
101308.835
101304.7132
101295.6201
101291.8211
101293.807
101296.0922
101294.8446
101293.128
101291.0201
101290.9509
101289.0333
101289.5577
101298.1365
101303.864
101303.2512
101302.7854
101304.2377
101305.5002
101304.2051
101304.4375
101307.1284
101304.3182
101297.3843
101297.1251
101297.8253
101298.7069
101300.3182
101296.984
101296.5429
101296.1085
101295.4635
101297.3914
101299.7925
101302.2047
101302.8745
101300.453
101300.5549
101301.9764
101300.7537
101300.7028
101303.1191
101301.1813
101293.7852
101286.4591
101287.6767
101285.1336
101282.0307
101277.2096
101278.878
101282.4919
101283.4449
101282.8115
101289.8473
101301.3831
101311.3718
101317.2485
101319.0876
101320.033
101321.1987
101321.2523
101318.0741
101308.8092
101296.1006
101287.2456
101283.5295
101280.7112
101280.8844
101278.4704
101279.3465
101281.5763
101283.9304
101284.9784
101290.053
101299.426
101310.0686
101317.6959
101320.2411
101320.5721
101321.0799
101320.849
101317.2494
101308.2879
101299.3213
101289.0534
101282.9788
101279.2321
101281.2078
101279.9294
101279.0161
101279.1901
101283.8568
101287.4001
101290.8926
101297.3263
101307.5632
101316.3895
101320.7226
101321.893
101321.7011
101320.0834
101315.4714
101306.9201
101301.1299
101291.3787
101286.0363
101281.7123
101282.8074
101281.3367
101278.2775
101276.3493
101282.1772
101287.8648
101291.9155
101296.764
101305.0427
101313.3319
101319.4708
101322.5792
101322.3518
101319.155
101313.2509
101305.1339
101299.2637
101290.7474
101288.5841
101283.5434
101282.4679
101281.5375
101278.663
101275.2409
101279.6387
101286.5055
101293.0045
101297.8783
101303.2119
101310.1433
101317.4473
101322.4572
101322.32
101317.9303
101310.8792
101303.5128
101295.2351
101287.2236
101287.5081
101282.2896
101280.2284
101280.6686
101280.2397
101276.0186
101277.5251
101284.2107
101293.4086
101299.2218
101302.9123
101308.7701
101315.8969
101320.6547
101320.4035
101316.393
101309.6972
101302.9084
101293.1514
101285.4123
101285.0588
101280.1047
101279.1508
101280.0353
101281.4308
101277.3066
101276.9956
101282.7463
101292.2439
101298.7712
101303.3537
101309.7963
101315.6139
101318.1925
101317.359
101314.8127
101309.8933
101303.2518
101294.3158
101286.0123
101282.7125
101279.1008
101279.6233
101279.1764
101279.9937
101277.2986
101277.9578
101282.4622
101289.8143
101296.2591
101303.3284
101311.5523
101316.4015
101316.1952
101314.7435
101313.9395
101310.7165
101303.9705
101297.8991
101288.937
101282.2095
101278.7695
101279.2919
101277.3374
101276.5392
101276.2901
101279.8038
101283.2995
101287.2931
101293.3673
101303.0666
101313.1212
101317.509
101315.9339
101314.3488
101314.0415
101310.9632
101304.2273
101299.9688
101290.2388
101282.7363
101277.9883
101277.0855
101274.5143
101272.9993
101274.9841
101281.0648
101283.7885
101286.3724
101293.2289
101303.7536
101313.478
101317.4117
101316.5956
101315.8166
101314.7184
101310.5184
101304.1034
101298.7574
101289.043
101282.6831
101276.7371
101274.2503
101272.2011
101271.5578
101274.2845
101280.0846
101282.8687
101287.1284
101295.6948
101305.6201
101313.0571
101315.9129
101316.8183
101317.5388
101315.3255
101310.1441
101304.1945
101295.3484
101286.2005
101281.6713
101275.7978
101272.6825
101271.2512
101272.2955
101273.7507
101276.9603
101280.9646
101288.4172
101298.3567
101307.4876
101312.6089
101314.2506
101316.2576
101317.5054
101315.2742
101310.2654
101304.4214
101293.5937
101284.7488
101281.3523
101275.2428
101272.6807
101271.9175
101273.8791
101273.3105
101274.4289
101279.9908
101289.5612
101299.2917
101307.7508
101312.49
101314.6413
101316.3878
101316.371
101314.0445
101309.9876
101304.2856
101294.454
101286.4172
101281.8488
101275.4198
101272.6473
101272.6968
101274.9837
101273.2562
101274.6696
101281.682
101291.2224
101298.4385
101305.338
101312.2268
101317.0267
101317.8338
101315.1851
101311.8938
101308.2795
101303.3292
101297.2317
101290.1072
101282.7888
101275.6372
101271.9852
101273.1236
101275.5863
101274.742
101278.7205
101285.6635
101292.814
101296.8494
101301.8211
101311.0516
101318.8802
101319.084
101314.325
101309.7191
101305.9954
101301.9966
101299.1557
101292.8711
101284.2755
101277.3496
101273.2057
101274.2579
101276.5581
101278.4117
101284.2515
101289.1232
101293.7548
101296.6285
101300.2433
101309.3017
101317
101317.6137
101313.2582
101308.6166
101304.9385
101301.4866
101299.0648
101293.2629
101286.2584
101281.1284
101278.355
101277.834
101278.7597
101283.5884
101289.2007
101290.3121
101293.1996
101297.651
101302.1769
101307.4863
101311.5178
101313.0177
101311.4943
101308.7115
101305.9545
101302.2442
101297.2053
101292.63
101289.2423
101287.0985
101286.8118
101284.0852
101282.8123
101288.9347
101292.5785
101290.1556
101292.032
101299.1882
101305.5427
101306.5751
101305.2792
101307.081
101308.7205
101308.6995
101307.5987
101303.4678
101296.6199
101293.5964
101292.9075
101293.5496
101295.2241
101291.5532
101288.8443
101293.7745
101295.2113
101291.517
101292.2512
101300.3304
101307.4768
101305.6408
101301.4084
101302.1336
101305.277
101307.1454
101307.5024
101303.7193
101298.1361
101297.2085
101297.0669
101298.7528
101300.1777
101296.9398
101295.8819
101297.3165
101298.1789
101296.7378
101296.3313
101301.5162
101304.6095
101301.7985
101299.4486
101299.9539
101301.4882
101302.948
101303.8622
101301.5445
101302.9718
101302.7892
101285.6692
101281.3701
101287.9886
101283.9557
101279.5645
101287.1827
101294.8559
101290.0536
101290.2233
101300.3261
101313.6592
101320.0349
101317.8606
101316.818
101321.479
101325.0293
101321.0243
101309.3279
101300.6392
101296.4813
101286.9414
101281.6862
101283.4532
101281.9558
101281.4172
101285.9169
101292.9587
101293.6799
101294.9854
101299.5684
101309.5901
101318.5979
101321.7974
101321.8749
101323.1245
101322.8463
101317.426
101307.1959
101297.0154
101288.2903
101289.6698
101284.5361
101281.9909
101282.963
101284.4771
101283.6454
101289.864
101296.0403
101298.9459
101299.1619
101305.2379
101315.3339
101323.0602
101325.3357
101324.0045
101319.9825
101312.9657
101304.587
101293.92
101283.7095
101293.0927
101289.0558
101284.3491
101286.9779
101288.2731
101282.2528
101285.5771
101293.6231
101300.1041
101300.3838
101303.4939
101311.6697
101320.4352
101324.4111
101322.5507
101317.3743
101310.3099
101303.2981
101294.5035
101286.6718
101294.6605
101289.902
101285.7708
101288.4222
101291.0709
101284.2617
101282.5049
101287.8909
101298.1369
101303.3942
101305.678
101309.1494
101315.6427
101320.2192
101319.804
101316.0436
101310.7362
101304.1544
101298.4825
101295.246
101292.8036
101286.9222
101284.8939
101286.7437
101292.3171
101288.5106
101281.9883
101282.4655
101295.1773
101306.9248
101309.4948
101309.3523
101312.346
101316.3858
101317.2086
101316.0231
101313.5917
101306.4479
101301.7195
101299.6784
101288.0061
101283.9051
101284.7155
101284.6888
101291.0202
101290.0171
101283.6918
101281.8419
101293.8437
101306.3588
101309.8954
101310.1052
101312.6675
101315.4393
101315.8977
101316.0009
101315.8652
101307.8215
101300.9657
101296.712
101284.3625
101283.75
101285.7592
101283.9993
101287.1913
101286.2443
101284.8341
101285.6212
101294.6643
101302.3286
101305.4768
101309.6193
101315.3988
101317.7445
101316.4491
101315.3835
101314.194
101306.4042
101299.7448
101291.6182
101286.6772
101286.0146
101286.7661
101284.0943
101281.8131
101279.9777
101285.096
101290.4259
101295.7835
101297.0617
101299.6297
101308.6966
101318.696
101321.3098
101318.5263
101314.2185
101309.3239
101302.6147
101298.2284
101289.3415
101291.6238
101287.5277
101284.7684
101283.2838
101278.4103
101276.2836
101285.3737
101292.8597
101296.0058
101295.4466
101298.9405
101309.5726
101319.847
101323.0352
101320.3757
101313.4019
101304.0899
101298.9579
101296.2966
101289.2061
101293.2524
101285.891
101280.2371
101280.5979
101278.5764
101277.4996
101285.518
101291.5968
101294.8724
101297.3777
101304.1112
101311.9364
101317.4865
101320.5279
101320.2492
101313.9237
101303.9277
101298.7063
101294.3627
101287.9793
101288.4304
101281.7905
101276.3464
101277.0288
101281.0592
101281.8033
101284.1491
101287.3784
101292.7278
101300.7389
101309.8809
101314.1874
101314.2886
101316.0404
101318.359
101315.7849
101308.5773
101302.2997
101294.2479
101287.0079
101282.8204
101278.9548
101274.7344
101274.7415
101282.9144
101283.9121
101282.0061
101283.6808
101292.3448
101302.7774
101311.5826
101314.3354
101313.7832
101314.0777
101316.3237
101317.1602
101314.1047
101306.5184
101295.3252
101287.5487
101281.5636
101279.1674
101275.3001
101274.5573
101281.9379
101282.0303
101279.6243
101283.7382
101295.8183
101303.5718
101307.8521
101312.2684
101315.9235
101316.0456
101315.3674
101316.0293
101315.648
101307.8757
101298.3736
101291.1414
101284.9308
101280.7643
101276.3276
101275.7889
101278.6474
101278.7857
101280.6321
101288.4846
101301.338
101303.3405
101302.0764
101309.7806
101318.7032
101319.2494
101314.8182
101312.1876
101311.6472
101305.6665
101300.6113
101295.6176
101288.7542
101282.0246
101277.9209
101278.0355
101276.146
101278.6805
101286.1467
101294.2715
101303.0643
101302.6202
101301.1142
101309.4473
101317.3964
101318.0116
101313.1022
101308.7716
101306.421
101302.5165
101301.0068
101298.0322
101290.3218
101282.3059
101281.5766
101281.3988
101276.7315
101282.7466
101294.1035
101297.5461
101298.7665
101300.2477
101305.8984
101310.7649
101312.1324
101311.7435
101310.159
101307.2696
101304.0672
101300.985
101299.2416
101297.5034
101290.5644
101283.6
101286.9951
101285.8345
101280.9051
101289.2078
101299.9306
101297.6591
101291.191
101296.6155
101310.5898
101311.8101
101305.5815
101304.3391
101307.1199
101307.729
101304.6651
101301.3962
101299.0635
101297.3083
101292.3633
101287.719
101292.6325
101291.6465
101288.4986
101294.9237
101302.3219
101297.5186
101287.8939
101294.3181
101310.4604
101310.3691
101301.9695
101299.6853
101304.4059
101307.2243
101305.507
101302.1758
101299.9828
101298.1059
101296.3357
101297.1666
101298.1015
101298.166
101296.336
101297.6721
101301.197
101297.5659
101293.3623
101298.7601
101305.0873
101304.6586
101300.1995
101298.2992
101301.4304
101303.7744
101303.2991
101301.6244
101308.6823
101308.8462
101282.6307
101280.1826
101297.9749
101297.3665
101287.4199
101289.2636
101298.3948
101302.8864
101303.5033
101301.2171
101307.1288
101316.874
101322.6962
101321.2548
101320.8392
101320.6219
101314.867
101306.1401
101303.7161
101301.4094
101294.5278
101289.3238
101291.0061
101291.0622
101290.3028
101290.3303
101297.5749
101304.2147
101307.0197
101302.2001
101303.2667
101313.0651
101322.4823
101324.3913
101323.2741
101320.4788
101313.0826
101304.7044
101294.7995
101289.3652
101302.0868
101296.0856
101286.2394
101289.1616
101295.609
101291.9763
101295.3968
101301.4027
101306.5637
101304.3014
101302.9465
101310.0601
101319.51
101323.8916
101323.5375
101319.5656
101311.0434
101303.0277
101287.0636
101279.3797
101301.8327
101296.5048
101286.3081
101292.652
101301.1524
101295.08
101292.9258
101294.9676
101301.6237
101306.1584
101308.0083
101310.6715
101314.5761
101318.6359
101320.2668
101318.0866
101310.5078
101302.8382
101291.4104
101287.1565
101299.5922
101293.9725
101289.4654
101292.6299
101302.4439
101300.7628
101293.1923
101286.5381
101293.5846
101308.9212
101316.2623
101311.8523
101307.9581
101311.4362
101316.0003
101316.5922
101312.004
101304.5664
101304.8279
101308.738
101298.0615
101292.7461
101293.3715
101287.8366
101299.2796
101308.4596
101296.9296
101280.148
101286.3782
101310.7211
101321.254
101312.1357
101304.4448
101308.1518
101314.2744
101315.7418
101313.5767
101307.0016
101313.8526
101317.2969
101293.5283
101291.481
101295.0322
101284.2867
101295.2488
101309.368
101301.2403
101281.1755
101285.0545
101309.6666
101318.6163
101309.9398
101305.2986
101311.5059
101315.8487
101314.7329
101313.3453
101307.6466
101308.1026
101306.1831
101289.144
101291.8245
101294.1569
101285.8722
101292.8066
101301.5509
101300.5112
101288.7282
101294.4113
101307.3806
101310.1226
101304.9561
101308.6977
101318.6914
101319.3828
101313.718
101310.7154
101305.6884
101297.6111
101288.7635
101292.1253
101293.738
101293.3592
101291.1314
101290.9493
101290.2442
101293.949
101295.7265
101302.179
101303.0391
101299.8097
101300.3955
101312.1401
101324.1666
101322.1601
101312.7822
101306.3733
101301.6196
101290.9612
101282.6473
101299.9171
101295.3999
101291.7272
101293.9594
101289.6573
101283.569
101288.3119
101298.0438
101305.0808
101301.6772
101298.7333
101302.4128
101314.0434
101324.0118
101321.7659
101312.1696
101302.8117
101297.7737
101292.3265
101288.5656
101303.6122
101292.945
101287.1953
101290.7859
101289.5122
101284.5337
101288.5311
101297.0421
101301.0433
101301.2748
101306.2225
101311.0014
101315.0872
101319.3286
101318.4176
101312.133
101302.9808
101297.3155
101297.8256
101296.2459
101295.5677
101287.6645
101282.2911
101282.5968
101289.8258
101291.9551
101293.6982
101293.4265
101293.534
101301.2876
101314.3076
101318.4503
101314.9474
101313.4433
101314.5291
101313.3131
101307.0248
101300.5681
101302.1506
101297.1611
101283.9007
101284.5201
101280.0219
101275.3279
101288.3554
101297.237
101297.14
101288.6534
101289.4314
101303.4039
101316.3344
101318.6787
101314.8333
101311.5991
101313.3507
101315.2073
101312.4412
101305.1886
101300.6533
101292.9385
101281.2123
101286.2086
101283.1374
101273.4453
101283.8516
101295.7493
101294.1371
101285.3688
101293.6086
101307.7662
101312.187
101312.3717
101313.4059
101314.0117
101315.393
101316.4762
101315.0417
101307.5299
101298.3605
101290.6435
101288.4062
101290.1987
101287.7545
101277.0369
101277.7965
101288.3198
101287.8219
101287.1657
101304.3937
101312.057
101306.11
101305.6261
101312.6326
101318.3545
101318.2836
101315.3351
101312.819
101305.9157
101297.6595
101293.7732
101296.9408
101290.8422
101288.974
101282.9575
101276.0804
101281.9813
101285.5936
101293.7888
101310.0368
101311.37
101305.0188
101305.2372
101311.6518
101317.8848
101317.113
101312.0201
101307.1955
101302.3166
101298.4661
101299.4236
101299.7923
101286.4523
101286.2457
101288.2024
101281.2801
101281.3211
101289.7681
101302.123
101307.702
101304.2131
101307.1258
101310.5273
101312.1321
101312.4808
101311.3294
101307.5414
101302.2249
101299.4407
101300.4726
101301.7977
101296.9963
101282.1048
101282.3725
101291.7426
101291.5183
101285.8185
101295.6403
101307.9228
101299.4921
101293.602
101306.5231
101314.8534
101311.8098
101306.2558
101304.5177
101303.8345
101299.208
101298.2442
101302.9779
101301.3373
101295.42
101283.427
101281.6588
101295.7737
101301.1912
101292.428
101299.4348
101308.8318
101294.1283
101286.4599
101302.0246
101313.8145
101310.841
101302.4837
101300.4143
101300.6765
101297.9647
101298.313
101303.6251
101299.4823
101296.7345
101293.6112
101291.7411
101300.825
101301.922
101296.7971
101300.0614
101301.1242
101295.8786
101293.4838
101299.0707
101307.1149
101305.7675
101299.5138
101298.7277
101300.0866
101298.492
101300.2446
101304.4308
101295.1498
101285.4993
101288.9037
101302.7909
101309.5211
101308.4682
101298.4993
101295.479
101311.3574
101318.4761
101306.6928
101303.8263
101310.6304
101321.5784
101326.1761
101319.9222
101311.9397
101303.5865
101299.5321
101303.0763
101300.1402
101307.6873
101307.8974
101300.385
101300.255
101307.1143
101303.1572
101298.0904
101303.7851
101313.4785
101308.6522
101300.9772
101302.0798
101315.2367
101324.2393
101322.3875
101314.3271
101304.4233
101299.7605
101297.1876
101296.603
101316.6305
101315.0778
101296.6878
101296.3422
101307.91
101308.3158
101300.9613
101296.5422
101307.3355
101311.9611
101303.0762
101299.0966
101308.8487
101317.4051
101320.2021
101316.0543
101306.9607
101300.5455
101289.8645
101287.1572
101305.5686
101302.9388
101294.6367
101299.2173
101309.6603
101313.2737
101307.5502
101292.9791
101299.146
101316.1959
101312.6424
101305.2495
101304.2362
101307.6833
101314.2345
101316.5399
101310.2628
101302.241
101295.3016
101298.4646
101295.6148
101291.9364
101300.0242
101300.0639
101305.1739
101315.9811
101316.923
101293.899
101288.5583
101311.1644
101321.9608
101315.864
101302.4516
101298.1956
101307.4767
101315.4549
101312.6726
101304.2965
101311.6215
101322.628
101296.1197
101291.8876
101311.3373
101297.0827
101293.8129
101314.2077
101324.3674
101299.0565
101276.2585
101293.3804
101323.2134
101324.6084
101304.9883
101295.9146
101305.2624
101313.5472
101311.727
101304.8011
101321.3765
101329.1128
101298.3085
101295.9963
101314.8242
101293.9092
101286.8251
101310.838
101327.5785
101304.5464
101274.96
101285.0496
101318.5079
101322.5174
101306.3667
101300.9853
101308.8526
101312.2225
101308.4352
101303.7395
101311.9958
101311.1589
101299.5269
101298.8999
101308.2768
101295.2838
101290.1022
101307.7752
101321.5722
101310.4439
101291.2169
101291.2337
101309.4338
101311.7307
101303.728
101308.2629
101314.9101
101311.8579
101305.7943
101302.4561
101293.1356
101285.3123
101300.3573
101299.0772
101302.1278
101301.8114
101298.3272
101301.8657
101307.6063
101308.169
101307.2307
101302.2139
101303.425
101300.6395
101300.6589
101312.9837
101319.1375
101312.3118
101304.7732
101301.3914
101282.6117
101275.276
101302.9495
101298.2624
101300.8401
101305.5904
101302.3068
101296.7356
101293.5642
101300.3114
101312.0332
101307.0153
101302.5092
101298.9946
101302.0535
101314.3447
101318.94
101312.6566
101304.8687
101300.2571
101289.8986
101287.7959
101303.725
101296.1841
101299.559
101302.2254
101299.1195
101295.8272
101292.9878
101298.2776
101306.2945
101305.611
101308.0394
101308.3233
101308.3928
101313.2745
101314.886
101311.556
101304.9981
101299.459
101306.1954
101308.3904
101297.0989
101292.5335
101295.8741
101291.9239
101290.7279
101300.7805
101307.0439
101300.2394
101293.9794
101300.3893
101316.1294
101320.1246
101315.6378
101312.713
101311.0819
101309.5791
101305.184
101299.5778
101316.9646
101314.5409
101287.2886
101289.9938
101292.9699
101282.3335
101282.4744
101304.8665
101322.5618
101302.7491
101284.4351
101298.5808
101319.1805
101324.5175
101318.0691
101313.036
101311.1221
101309.6027
101306.9412
101301.2092
101310.9265
101305.4023
101285.9251
101290.8221
101295.166
101280.7205
101278.8478
101302.6905
101320.1986
101301.1578
101286.8552
101303.4868
101318.1373
101318.911
101313.2485
101312.3438
101314.1265
101312.2306
101309.2973
101303.7572
101296.9583
101292.3281
101294.3906
101293.9464
101303.1873
101287.1148
101275.7964
101293.8109
101303.9228
101296.8184
101301.3971
101312.8062
101315.7032
101309.235
101306.2067
101312.511
101318.1081
101314.9757
101310.6113
101304.413
101288.2869
101286.708
101303.5333
101296.1655
101302.5089
101290.9201
101280.1574
101286.9121
101286.1476
101294.7921
101313.2979
101316.745
101312.7627
101305.1957
101304.7603
101312.9977
101318.1128
101314.0906
101307.519
101301.9534
101290.0242
101292.0501
101305.8845
101296.3166
101291.5729
101289.7402
101294.7872
101289.2819
101279.179
101297.2194
101317.5277
101312.9818
101308.2356
101307.1621
101310.7515
101313.9764
101313.4803
101308.9915
101301.714
101298.1646
101300.7024
101300.5772
101303.4351
101297.1946
101276.5324
101286.6319
101312.1939
101297.9673
101282.097
101302.1689
101314.3039
101304.4261
101300.1886
101309.0214
101317.4708
101313.845
101306.3638
101302.365
101295.3237
101294.9668
101309.0088
101302.6338
101302.3251
101299.7006
101269.1356
101286.1715
101321.0036
101306.3229
101288.3355
101303.6619
101308.4978
101297.0301
101293.0071
101307.2301
101317.8044
101312.0061
101301.4689
101297.2098
101292.1688
101294.2025
101309.4385
101299.8736
101300.0153
101295.9979
101283.4309
101298.7234
101311.0146
101300.4066
101295.1643
101300.0017
101302.0027
101296.7484
101293.915
101303.6054
101309.5983
101304.6835
101299.3478
101297.3312
101295.3076
101297.823
101293.836
101286.756
101297.3871
101297.0521
101303.6177
101309.4089
101329.0318
101330.6681
101312.3491
101290.2839
101293.9338
101322.838
101330.5704
101298.7607
101284.61
101313.7023
101322.6309
101312.3042
101299.1439
101293.7467
101302.9082
101304.2403
101321.2487
101325.7041
101310.7376
101304.1715
101323.0557
101329.3482
101311.3777
101289.0221
101292.7789
101318.9979
101320.4134
101297.6893
101293.5835
101310.435
101316.3533
101307.915
101297.9896
101295.0139
101304.8991
101310.7891
101325.1631
101332.6075
101314.8321
101306.211
101312.4206
101318.9011
101313.3972
101301.7027
101298.8529
101303.519
101302.7416
101302.1183
101307.6582
101305.6349
101306.3331
101304.249
101300.7027
101298.3893
101300.3723
101304.1673
101301.0308
101309.3914
101317.2833
101315.8224
101304.7147
101306.8817
101317.991
101327.9858
101314.7351
101279.3521
101278.8127
101311.694
101323.4703
101300.528
101295.8386
101303.7731
101308.2688
101303.6961
101302.3988
101308.1958
101283.2843
101288.2344
101327.6502
101328.9594
101292.9375
101288.2122
101324.7196
101349.8265
101325.3341
101264.6467
101270.6281
101324.7826
101331.5953
101293.4595
101288.515
101304.8902
101313.0891
101307.0185
101311.0696
101321.5131
101287.1609
101286.0791
101340.3935
101339.3779
101278.3113
101263.4091
101326.8152
101358.658
101325.31
101260.8526
101273.6347
101332.4997
101332.2696
101288.6342
101287.5561
101306.2931
101312.593
101304.5129
101315.8094
101323.8592
101302.4757
101296.1986
101337.0678
101336.644
101276.7949
101250.0561
101317.0986
101358.5815
101317.5276
101255.0513
101277.9419
101331.0869
101327.7099
101288.4451
101293.0162
101307.2518
101307.5885
101299.5809
101308.4034
101309.5857
101317.1389
101305.8774
101318.1615
101326.5473
101292.7734
101257.0297
101306.0193
101359.243
101295.6141
101269.4957
101287.8956
101324.6063
101320.648
101290.4114
101298.5578
101307.922
101303.7942
101297.3053
101289.8594
101288.0542
101316.8065
101306.0186
101302.5572
101319.0725
101313.065
101272.0441
101286.903
101338.777
101331.9481
101305.355
101292.1564
101312.1435
101312.2341
101291.7857
101301.4448
101309.163
101305.0765
101300.2625
101279.3336
101275.9857
101303.7569
101301.6806
101301.0619
101315.5994
101321.7943
101282.6158
101273.0395
101305.4825
101345.2241
101317.8597
101290.5391
101303.3839
101310.0985
101295.4559
101302.3714
101310.2229
101308.5098
101304.5579
101291.4173
101287.5771
101293.0316
101299.407
101307.697
101311.5388
101310.8677
101283.6831
101275.3969
101306.9415
101335.7732
101302.1095
101283.4117
101301.9278
101315.0759
101303.2672
101303.8696
101309.8164
101309.444
101305.3424
101314.6756
101314.6507
101293.0598
101298.2215
101312.115
101305.7236
101288.2752
101278.7383
101293.9853
101323.4328
101321.9222
101290.0849
101283.4435
101307.0197
101321.0797
101311.7517
101306.418
101307.7373
101306.5754
101301.7297
101327.6612
101327.746
101296.5771
101294.5334
101310.0692
101305.2736
101269.1481
101271.4959
101318.2265
101338.417
101309.9209
101283.6267
101294.5484
101317.9942
101322.9712
101315.668
101309.8081
101306.504
101303.0519
101298.3318
101316.659
101318.3035
101302.4072
101288.6481
101306.0949
101312.8403
101269.3156
101272.7569
101332.9679
101339.6009
101295.7515
101285.4441
101313.9793
101327.9221
101316.1605
101311.5573
101311.4237
101307.6514
101302.7449
101299.054
101290.7005
101296.4553
101306.3527
101284.4673
101311.0993
101320.6901
101278.5746
101284.3859
101329.9486
101324.3528
101286.4507
101295.2575
101331.4369
101329.3153
101304.0212
101303.2033
101311.6173
101310.2461
101306.0627
101302.6149
101276.0708
101279.3395
101302.5687
101288.5459
101312.5586
101310.9857
101289.9742
101300.3533
101311.8819
101297.6392
101284.5999
101306.4031
101335.1391
101321.7182
101298.9518
101300.1934
101310.0687
101311.1282
101308.2811
101304.2104
101284.4946
101281.2289
101295.3483
101303.847
101304.2712
101284.0178
101303.5564
101315.4786
101290.852
101279.5025
101297.348
101317.1603
101320.0825
101309.6643
101305.6587
101307.6485
101309.5246
101308.7314
101306.3313
101301.8128
101309.4121
101301.3282
101296.4535
101323.2243
101287.1194
101256.7632
101315.022
101325.6176
101276.696
101275.3937
101321.3142
101326.8134
101297.2596
101294.5284
101316.7289
101319.7583
101309.3435
101304.0435
101300.4238
101297.5366
101324.0916
101310.0172
101302.9393
101339.0204
101276.4598
101249.3033
101316.3791
101329.8628
101277.5227
101282.3722
101333.4937
101328.3622
101284.6558
101286.0338
101318.5085
101324.947
101308.7469
101300.1182
101295.4995
101294.7478
101316.2128
101300.5777
101302.7539
101309.5995
101285.6825
101287.0009
101308.9703
101306.975
101290.1912
101296.0391
101317.3548
101309.8105
101289.3579
101292.1095
101309.7932
101314.2752
101306.3853
101299.0513
101295.9571
101297.2317
101293.7601
101300.809
101314.5554
101299.5637
101328.1271
101330.573
101326.2814
101340.3288
101323.6561
101287.9936
101289.6247
101312.499
101314.7479
101298.1609
101279.1603
101286.4334
101310.0648
101310.4881
101300.0283
101296.8823
101305.7352
101311.5052
101320.6141
101324.7461
101329.741
101321.4885
101314.4973
101335.9531
101343.6824
101305.6892
101284.0986
101304.9588
101318.2545
101302.3347
101284.5945
101288.9588
101299.1904
101301.2635
101297.6707
101296.3503
101313.0529
101317.0941
101315.7328
101332.8494
101329.9427
101319.9114
101308.3687
101321.1897
101348.1464
101326.1433
101290.6383