/*--------------------------------*- C++ -*----------------------------------*\
| =========                 |                                                 |
| \\      /  F ield         | OpenFOAM: The Open Source CFD Toolbox           |
|  \\    /   O peration     | Version:  5.x                                   |
|   \\  /    A nd           | Web:      www.OpenFOAM.org                      |
|    \\/     M anipulation  |                                                 |
\*---------------------------------------------------------------------------*/
FoamFile
{
    version     2.0;
    format      ascii;
    class       surfaceScalarField;
    location    "7.2";
    object      phi;
}
// * * * * * * * * * * * * * * * * * * * * * * * * * * * * * * * * * * * * * //

dimensions      [1 0 -1 0 0 0 0];

internalField   nonuniform List<scalar> 
91025
(
1.636066032
0.07318003034
-0.04923210464
1.53726069
-0.1482497593
0.1052110168
1.651338766
0.06473131697
-0.2074821843
1.556585156
-0.02287375345
-0.08225635292
1.245674229
-0.02567710076
-0.2491234878
0.819099119
-0.07810747464
-0.1510645792
0.4048049568
-0.02477393791
-0.3643736242
-0.1313160245
-0.1482589834
-0.3334556058
-0.4925651279
0.06676092863
-0.3020487358
-0.5516857746
0.1546957745
-0.172656206
-0.5977946551
-0.07091415806
-0.2795201996
-0.8649630733
-0.4858354928
-0.3666052091
-1.251102504
-0.6066666424
-0.3686163905
-1.374243366
-0.436241745
-0.2573594921
-1.167969482
-0.08020512477
-0.1525530832
-0.7338034754
0.01001280136
-0.1279042041
-0.513192181
-0.07265413918
-0.1419105042
-0.549417193
-0.3380438027
-0.2032605401
-0.8814120446
-0.4334753689
-0.1955530624
-0.3247228443
-0.1402178505
1.619053876
0.1335203558
-0.08734002044
1.573473861
-0.1926260482
0.1011633554
1.639131706
0.1489465358
-0.1332105205
1.483741093
-0.003377480641
-0.01331739709
1.251973087
0.07509385885
-0.2432662612
0.8322690405
-0.03035732252
-0.1655256538
0.4202457536
0.00752086889
-0.347741363
-0.06372206168
-0.2671319518
-0.3159632707
-0.4599306419
-0.04386704629
-0.3410876311
-0.6660563009
-0.01503487508
-0.2386275365
-0.7928727245
-0.2418724784
-0.2855405465
-0.952273699
-0.7402629523
-0.3041764143
-1.14189739
-0.8867910425
-0.3267657519
-1.198227758
-0.7824182162
-0.2784786527
-1.097196316
-0.3777602474
-0.2069933817
-0.8122575483
-0.2572341792
-0.1756237436
-0.6539515857
-0.2423201474
-0.1423395449
-0.6099479546
-0.4920711366
-0.1599554113
-0.7733724152
-0.5174818798
-0.1317338961
-0.4077006157
-0.09662140738
1.630719737
0.1679921903
-0.1481598266
1.678780591
-0.1360727062
0.0749797149
1.639440103
0.1944630529
-0.109591242
1.436611033
-0.05014749698
0.01342134601
1.242246202
0.1917759212
-0.2593132608
0.8165123077
0.01728043164
-0.178200339
0.3826065697
0.08491527597
-0.3229312257
-0.02565465279
-0.3144709594
-0.2699950072
-0.4292256565
-0.2638834229
-0.3808442078
-0.7842507981
-0.4283076495
-0.3039565942
-1.00853334
-0.4778332163
-0.310816274
-1.068197221
-0.7628956794
-0.2314187362
-1.046072037
-0.8219837655
-0.2760599455
-1.017607133
-0.966716681
-0.2860990511
-1.002168366
-0.7892001078
-0.2674811396
-0.8567433535
-0.7593089263
-0.2286513535
-0.7497693774
-0.5034830977
-0.1555912415
-0.6456137032
-0.4997878032
-0.1213874271
-0.6491240421
-0.284624213
-0.06480549996
-0.2445857153
-0.04424791657
1.665194881
0.2013942575
-0.1886039903
1.7239836
-0.05548171198
0.03763454794
1.654519947
0.1705137927
-0.1355778299
1.45025931
-0.2201313585
-0.01165746676
1.232632121
0.1626010255
-0.2921022949
0.7487413602
-0.0786303296
-0.1996786887
0.2729823791
0.1357498721
-0.2860479532
-0.09168321234
-0.2933396424
-0.2086514543
-0.4690251801
-0.4135296743
-0.3655526238
-0.8473727148
-0.8103175093
-0.3343937634
-1.099566994
-0.6864460944
-0.3396715085
-1.144391162
-0.7169338205
-0.2107220675
-1.065877266
-0.6397746328
-0.248904612
-0.9849289057
-0.9926255319
-0.2696809364
-0.9449619016
-1.056717659
-0.2715889937
-0.7896515364
-1.16454237
-0.2416099677
-0.6840982599
-0.7160290627
-0.1601733968
-0.5779666413
-0.4757678349
-0.1165139978
-0.5618377511
-0.03275159198
-0.04587408501
-0.06096793778
-0.02297423401
1.677615065
0.229540614
-0.1676427132
1.66517402
-0.07031110433
0.05507390403
1.641018437
0.1135203098
-0.1735810912
1.473834314
-0.4018755013
-0.02883271993
1.242368661
0.04451567865
-0.2902978714
0.7151145874
-0.3013176725
-0.2039061354
0.176952437
0.1129682266
-0.2906276739
-0.2376740854
-0.2904117907
-0.1580273388
-0.5651485339
-0.3781227561
-0.3202516246
-0.8522346541
-0.9559302253
-0.2998133156
-1.061549187
-0.7682804821
-0.3924294289
-1.171992719
-0.7885297079
-0.2378620294
-1.172738007
-0.5789233758
-0.2708206941
-1.101574909
-0.9740190783
-0.2458263758
-0.9320574292
-1.005143879
-0.2402301412
-0.6361370464
-1.220346931
-0.2098547239
-0.4674072521
-0.7664878673
-0.1600160293
-0.4059891145
-0.5415088221
-0.1419760848
-0.4967659098
-0.003139144975
-0.07975724803
-0.040404272
-0.03833943383
1.679979256
0.2581781266
-0.09435852804
1.543463718
-0.2151824371
0.1142405417
1.613400636
0.09686090688
-0.1601841147
1.527151819
-0.4841428688
-0.007238206044
1.263376815
-0.03094930241
-0.2443932037
0.7194049571
-0.5515984576
-0.19622392
0.1130093442
0.007165396747
-0.3120337886
-0.4071962704
-0.383723321
-0.1517560002
-0.7314359906
-0.238211794
-0.2635619846
-0.8772201023
-0.871137204
-0.261020979
-0.9721658528
-0.7409727428
-0.4389550715
-1.141087874
-1.013510853
-0.3007961088
-1.290299623
-0.7331661387
-0.3217728105
-1.223118528
-1.00272081
-0.244238149
-0.9480254976
-0.7204338402
-0.1948608663
-0.5006694075
-0.9324009648
-0.1489221118
-0.2632815323
-0.6109635899
-0.1375070979
-0.228439617
-0.6691428814
-0.1763091398
-0.4350702771
-0.2122532651
-0.1382342705
-0.2025958064
-0.07090780737
1.641643453
0.2927480511
-0.05755104077
1.460278669
-0.4408733871
0.132532568
1.563208032
0.1764280334
-0.1607570185
1.51195995
-0.4955888745
0.0197369385
1.25868192
-0.0535231222
-0.2210625999
0.7519454961
-0.7759344276
-0.1757672852
0.1165930579
-0.1912452684
-0.3429346413
-0.4944889688
-0.6437624665
-0.1679457932
-0.8571685654
-0.1605238251
-0.2545303724
-0.95878722
-0.7750304486
-0.2122544068
-0.9842305752
-0.6317627757
-0.4522554161
-1.132606105
-1.252071311
-0.3053922689
-1.294674188
-0.932677657
-0.3612185697
-1.224234827
-1.080297321
-0.2495532534
-0.9317434431
-0.4263017618
-0.1805453152
-0.4545299028
-0.5862370516
-0.1103240011
-0.1731602581
-0.3475276715
-0.1136296193
-0.1065515258
-0.7486767594
-0.1840439798
-0.317231358
-0.4683106408
-0.1655095235
-0.4240714615
-0.08942426985
1.631755709
0.3478327941
-0.0807104275
1.466801916
-0.5875441741
0.09112307406
1.546069523
0.2509293825
-0.1591905712
1.443228874
-0.5408163197
0.02283388038
1.211417881
-0.08377572595
-0.2129145074
0.7447707366
-0.9446144167
-0.1466126214
0.1343744324
-0.3983001155
-0.3227399858
-0.5078576169
-0.9733203047
-0.2020397917
-0.9560875829
-0.2346740415
-0.2915819558
-1.104838342
-0.7985476989
-0.2198338246
-1.098377855
-0.5001529787
-0.4451274885
-1.154119765
-1.307275583
-0.2790711677
-1.197079381
-0.9233158204
-0.3554729526
-1.075846335
-1.092769363
-0.2650847379
-0.853577883
-0.2809238804
-0.1980593921
-0.4835121726
-0.3988764487
-0.1154870313
-0.2342202228
-0.09572086213
-0.103447555
-0.09546677845
-0.6474629516
-0.1636764775
-0.1639783084
-0.4692713108
-0.1384183336
-0.5016908428
-0.07685256196
1.588121582
0.3845269715
-0.1508892637
1.474378341
-0.676465402
0.02621245535
1.47657175
0.1884028925
-0.1712200275
1.306908019
-0.7323846486
0.01062295569
1.12132496
-0.1672458276
-0.2190402242
0.6988058465
-1.103109491
-0.1047691828
0.1677963617
-0.5386515476
-0.2773883718
-0.432443251
-1.275069054
-0.2158223082
-0.938023752
-0.4465023254
-0.3362945544
-1.209754116
-1.005272634
-0.2110897444
-1.260694769
-0.4386691461
-0.3277167208
-1.210778182
-1.179348918
-0.190704999
-1.062567568
-0.6568166416
-0.2962218744
-0.8624298977
-1.006115883
-0.2513672114
-0.7084562827
-0.2855896411
-0.2306830446
-0.5042903904
-0.4484349417
-0.1579150265
-0.3439796525
0.03792257531
-0.1295623393
-0.1423936482
-0.4333049099
-0.139654085
-0.01793266664
-0.1888739872
-0.0870111996
-0.3778303432
-0.04292879834
1.567558878
0.3978773642
-0.1855004996
1.527914635
-0.7632403968
-0.000738733091
1.41609696
0.01450843766
-0.1575191765
1.21850421
-1.026295947
0.003253978636
1.03115884
-0.2782947913
-0.1961139507
0.6289973638
-1.261428726
-0.06478703972
0.1503106783
-0.6080174178
-0.2174269081
-0.3895493349
-1.480721222
-0.2116655211
-0.8979505691
-0.6737764694
-0.3505940221
-1.246042565
-1.270849309
-0.2327843309
-1.32653577
-0.4346619841
-0.2797141688
-1.223026768
-0.9987505189
-0.1636566575
-0.9913251504
-0.3108548707
-0.2365442867
-0.7418482819
-0.8463731099
-0.2189722763
-0.5925166809
-0.3182522467
-0.2256638815
-0.4578397548
-0.5991900858
-0.1978446543
-0.3913988568
0.03927624765
-0.1637422557
-0.1914498336
-0.2418248368
-0.1300806775
0.04537091572
0.1824020685
-0.04355851234
-0.1737876786
-0.0237764094
1.440142531
0.4032724559
-0.1658507831
1.419349294
-0.8652421678
0.02366344281
1.322125848
-0.1222137031
-0.1439287826
1.136092401
-1.286921156
-0.0001797381781
0.9526612584
-0.390656729
-0.1908041575
0.560179219
-1.441588665
-0.0562713897
0.1181236301
-0.6635997323
-0.198235657
-0.3618587874
-1.639288714
-0.1779563723
-0.8185688856
-0.8357434413
-0.315899593
-1.166882924
-1.486383966
-0.2095534425
-1.264052235
-0.4501273626
-0.2533565758
-1.181054653
-0.9299565287
-0.1520403108
-0.9861967375
-0.1250807754
-0.1909860811
-0.720571121
-0.7399489325
-0.1585684509
-0.5084862902
-0.226446271
-0.1852944175
-0.3482876082
-0.6386397731
-0.1998673359
-0.3019356059
0.01393321073
-0.1887627773
-0.1473870003
-0.1854563346
-0.1368865208
0.05285377289
0.4062718205
-0.04628118754
-0.06416656125
-0.02672290308
1.338724346
0.4386668422
-0.09866782689
1.303711524
-0.9234982565
0.08068355808
1.296602889
-0.1145128409
-0.1214025357
1.113894496
-1.400598085
-0.001076654058
0.9100656116
-0.4876763681
-0.1746093546
0.5054473518
-1.630156955
-0.07322259612
0.06223763186
-0.7690371922
-0.1798045031
-0.3856247693
-1.800544932
-0.1305261764
-0.7642275265
-0.9161655669
-0.2249887055
-1.049597578
-1.567545931
-0.1908343697
-1.143511853
-0.4592024017
-0.2469082826
-1.107275729
-0.9983468615
-0.1779347081
-1.010248179
-0.1640392927
-0.1616994596
-0.7672253124
-0.699040483
-0.114664318
-0.4909185826
0.0009569640684
-0.124400079
-0.2634460777
-0.4778185057
-0.1689278235
-0.1814613488
0.07142194296
-0.1718786618
-0.07935627792
-0.2286278944
-0.1411447873
0.00295681759
0.3813878475
-0.07250318783
-0.09850983045
-0.04277404297
1.154202099
0.505307471
-0.05482273489
1.116657663
-0.9370200587
0.09894529278
1.177626078
-0.004932804352
-0.1336344455
1.028096425
-1.437421193
-0.007078064508
0.8282250809
-0.5830094062
-0.1852519013
0.4401145335
-1.844909502
-0.1030641317
0.01950547038
-0.9300740079
-0.1960482196
-0.375161958
-1.972061222
-0.09386859475
-0.6693300124
-0.9422708582
-0.1738603297
-0.8987014943
-1.592299437
-0.1747296939
-1.011327875
-0.4576306242
-0.2537499563
-1.020955241
-1.102818818
-0.1692791187
-0.9385846186
-0.2713256613
-0.1456262986
-0.7103793753
-0.6919580099
-0.09374765099
-0.45372235
0.2185027718
-0.1101248941
-0.214038492
-0.2726838245
-0.1428910619
-0.08264798697
0.2031653297
-0.1408257417
0.009389102942
-0.2786984072
-0.1244020045
-0.0003704042548
0.2595762578
-0.08817973148
-0.2054243986
-0.05013864495
1.082790843
0.5745684293
-0.04855112415
1.040131709
-0.9364317293
0.07360077378
1.076950694
0.05214559946
-0.1194296901
0.9352406869
-1.499955429
0.003728611696
0.7471001408
-0.6820565886
-0.1435172415
0.3873563523
-2.037128943
-0.09810442706
0.003158517504
-1.097496561
-0.172460494
-0.3357616525
-2.098110903
-0.07402286627
-0.5761797086
-0.9641599481
-0.1462045321
-0.7747907982
-1.665438968
-0.1809374126
-0.9460748769
-0.5365020931
-0.2188144046
-0.97569035
-1.17298217
-0.1375740794
-0.8301719422
-0.2738190123
-0.09987655099
-0.5936100747
-0.6583942096
-0.0982149991
-0.4313332928
0.2772026096
-0.125229451
-0.2557838958
-0.2108641568
-0.137828754
-0.1108443794
0.3092118245
-0.0980361902
-0.0008115046929
-0.2348670985
-0.08638455775
-0.007338487934
0.235937808
-0.06456252661
-0.2650413104
-0.03642786163
0.935020658
0.6033669718
-0.07720186133
0.8690734492
-1.004295385
0.02521440432
0.8521098015
-0.01475481063
-0.1013001588
0.7418313809
-1.631369635
0.01297822841
0.6062262385
-0.7346670352
-0.1041903617
0.3190886116
-2.177452508
-0.08014189532
0.0245385306
-1.186647968
-0.1746755026
-0.2513490724
-2.162322737
-0.08995877103
-0.4552510352
-1.032210677
-0.1905952962
-0.6490549446
-1.871124356
-0.1902116802
-0.8527664613
-0.7386692328
-0.188057471
-0.8712151782
-1.224084319
-0.09376097579
-0.6483941309
-0.1058959021
-0.07208585965
-0.4278375593
-0.5712968488
-0.1006361091
-0.3420472438
0.1634820521
-0.1546589495
-0.2494793576
-0.3492201322
-0.1402778849
-0.1206037429
0.3523037128
-0.07916842914
7.612385891e-05
-0.09639768768
-0.05742410992
0.02080367646
0.385037159
-0.04280623502
-0.1943747001
-0.01781159542
0.8772321525
0.5791077191
-0.08395881106
0.7778503413
-1.126412767
0.01001194222
0.7108318319
-0.1447636218
-0.0555357581
0.6238448109
-1.78915048
0.02924733895
0.5060104809
-0.7313325832
-0.05009139305
0.2830242134
-2.234088061
-0.0390061188
0.05858648913
-1.20522018
-0.128748985
-0.1934521743
-2.206822739
-0.09835074784
-0.3990829071
-1.150737343
-0.176220425
-0.5523556841
-2.120221121
-0.1497769068
-0.7200780808
-1.002674798
-0.122580802
-0.7276224865
-1.309066809
-0.07515016415
-0.5608520437
0.04276374398
-0.04686658655
-0.396617814
-0.538768036
-0.08677240587
-0.3123364521
-0.002366350185
-0.1191940765
-0.2102774881
-0.5402183684
-0.1101444393
-0.1124796332
0.3271022246
-0.06838634245
-0.03337463664
0.01029978239
-0.05952258411
-0.04375755839
0.5569899339
-0.04845207044
-0.09152974442
-0.02045324711
0.6595417452
0.5421794015
-0.06569661047
0.5400604783
-1.262526793
0.01770678795
0.5035751937
-0.2404336562
-0.03603945358
0.4673298477
-1.898832997
0.001546027457
0.36011034
-0.7232358734
-0.07324577941
0.2133250585
-2.276139925
-0.04689376888
0.0618211913
-1.191108311
-0.1191237286
-0.1699537119
-2.291415006
-0.1204122434
-0.3645547066
-1.262330129
-0.1576207696
-0.4310865335
-2.240654721
-0.07595091409
-0.4474612694
-1.127680842
-0.0844546532
-0.4399992456
-1.428575573
-0.09356718333
-0.4622086126
-0.00442461593
-0.08934617374
-0.4030892983
-0.616102958
-0.06683678048
-0.2440827468
-0.05271730983
-0.04765834689
-0.0575062374
-0.607698197
-0.05371492653
0.02480472057
0.2853185029
-0.07246166602
0.01139793983
-0.04279554576
-0.09806638459
-0.1028120752
0.5459662068
-0.09453040833
-0.09836126142
-0.04918947896
0.535081539
0.5273089765
-0.0189454339
0.4231404124
-1.344628063
0.04948922082
0.4235719127
-0.2524668041
-0.01221655746
0.4098259504
-1.945604031
-0.01307729898
0.2757436332
-0.8163792302
-0.0961617213
0.1628705036
-2.36393116
-0.0437823784
0.04574823996
-1.235732108
-0.06538788152
-0.175418471
-2.455962912
-0.09134907281
-0.3544306235
-1.327778412
-0.06852551002
-0.3355875464
-2.132404439
0.02136653776
-0.2019002535
-1.011364153
-0.01931046996
-0.2121951672
-1.506521961
-0.1061362546
-0.4161512385
-0.3139912216
-0.1205519902
-0.4663360407
-0.8208419646
-0.04690880222
-0.2372253343
0.02232078617
0.0370434912
0.04384905852
-0.496737655
0.01010596187
0.1283793897
0.2135974253
-0.06696910531
0.01861956853
-0.2900735529
-0.1316688269
-0.2086749142
0.250424904
-0.1478867886
-0.2619012251
-0.08017855729
0.2584842417
0.5368236259
0.0106419258
0.1970948422
-1.378085661
0.0436774552
0.2298015294
-0.1947313104
-0.0145977549
0.2491891362
-1.938224296
-0.04843866276
0.1469766828
-0.9510878298
-0.136004351
0.08371036323
-2.447143888
-0.07057246206
0.005834011495
-1.315417537
-0.05721462484
-0.1564085021
-2.583364726
-0.07961969972
-0.2683428534
-1.331369756
-0.04047077349
-0.190008424
-1.893721533
0.05393505724
0.004479799098
-0.7272517211
-0.007347332677
-0.006418291485
-1.507728553
-0.1099086161
-0.246740285
-0.6901636358
-0.1485995153
-0.3585415157
-1.052617387
-0.04211119916
-0.1493092912
0.1451934023
0.05600769697
0.1329790606
-0.3018976362
0.04276410925
0.1968856907
0.1439995608
-0.05577396447
0.05688008503
-0.6211177341
-0.1284497704
-0.1835689716
-0.1578438043
-0.1508419592
-0.4963930587
-0.08503316321
0.119939628
0.01782303034
0.1218874853
0.02695504417
0.1661894248
0.005126458686
0.1329108546
-0.01866024477
0.07109980672
-0.06113774119
0.02298784506
-0.01422684952
-0.01959921624
-0.002688547333
-0.07033049324
-0.005693804096
-0.1314007624
0.01022255764
-0.06781853742
0.0394217403
0.045183406
0.01973684166
0.01402980079
-0.05769043617
-0.1276197113
-0.07156866867
-0.1921906777
-0.01148444995
-0.08469908341
0.04646591049
0.05120428043
0.03146929983
0.08026003402
-0.01871029231
0.006466955357
-0.05613250917
-0.1163339578
-0.0690644841
-0.03815165181
1.64930309
-0.09764954165
-0.2185895722
1.360853047
-0.2452450459
0.09945923532
1.517482799
0.2472387998
-0.3541929373
1.491881727
0.1457477336
-0.06657430686
1.164799782
-0.04473658262
-0.497135764
0.681608058
-0.1260975454
-0.2920164425
0.3535078212
0.04822246607
-0.568363602
0.003360950424
-0.07569000165
-0.5559765815
-0.389257448
-0.07852339178
-0.6681313246
-0.6649240654
-0.05487658219
-0.4848097432
-0.7685154213
-0.08260491661
-0.5681591931
-0.8489222719
-0.2560425268
-0.6457137214
-1.061782279
-0.4703398436
-0.7015813471
-1.198912057
-0.5010691872
-0.6287087099
-1.11738818
-0.2667101267
-0.4154707365
-0.7787743033
-0.1181723665
-0.3227027418
-0.5819911111
-0.08196432914
-0.2991725787
-0.5520609676
-0.2046702408
-0.4029516853
-0.7102111977
-0.216632204
-0.3485151555
-0.1682987892
-0.2289331349
1.629620082
-0.1071649002
-0.2357214496
1.491758784
-0.3722467721
0.1414576124
1.518795223
0.2517174762
-0.2652932747
1.348535148
0.1096497966
0.02133943876
1.131458651
0.009017238609
-0.4564090928
0.7187318168
-0.08134639098
-0.2897419186
0.3626227852
0.1427457768
-0.5576612844
0.003493759264
-0.09906703299
-0.5277697846
-0.3785786248
-0.1881229697
-0.6824129907
-0.6906446604
-0.2583201582
-0.5687973838
-0.8658817366
-0.2904341275
-0.6065054726
-0.96240937
-0.474665746
-0.5886790968
-1.063671177
-0.7221634499
-0.642925384
-1.089565294
-0.8195345958
-0.6343688955
-1.025175892
-0.5761021816
-0.4824283286
-0.7794225545
-0.4142855573
-0.4013799222
-0.6389134026
-0.2798580566
-0.3249381376
-0.5840143862
-0.3685897904
-0.3593590124
-0.6579029854
-0.2788589552
-0.2695654299
-0.2132393801
-0.1710393585
1.593568801
0.0283985795
-0.2718060853
1.654017551
-0.2761057881
0.1802486929
1.545627015
0.1439433419
-0.2571273163
1.269267069
-0.07003449054
0.0456782377
1.113566066
0.1167941991
-0.4672018375
0.7470481287
-0.01404233974
-0.2990622404
0.3236860807
0.2257200531
-0.5559333153
-0.05686398249
-0.09304548831
-0.4656836208
-0.4083044388
-0.2601317698
-0.6967759913
-0.7129319503
-0.5282024608
-0.6375769779
-0.9487923027
-0.5703543872
-0.6888871155
-1.077611602
-0.6517084348
-0.5279319559
-1.085540821
-0.7498644582
-0.5857137611
-0.9956968067
-0.9293207772
-0.5957764883
-0.9172554295
-0.8253974773
-0.5384020501
-0.7337358274
-0.7895811074
-0.4909446719
-0.6422817877
-0.5359082566
-0.3650905546
-0.5677421485
-0.489619696
-0.3167287943
-0.5795928023
-0.211907258
-0.1787168676
-0.1490946553
-0.1024469162
1.58338545
0.2783412324
-0.2908463146
1.717801893
-0.0005771037384
0.1730222837
1.582408115
0.08888751062
-0.3160139168
1.292974458
-0.2510412329
-0.0181833173
1.143527401
0.1830285028
-0.4966437442
0.7590913964
-0.08074079637
-0.3305386342
0.2463841942
0.1843658659
-0.5404994727
-0.186948057
-0.1128961981
-0.3938242184
-0.5089915855
-0.2605329993
-0.6316061942
-0.7665147623
-0.7327408533
-0.6256593599
-0.9864818806
-0.8119081832
-0.7441555674
-1.142261293
-0.8111075628
-0.5389956935
-1.144652504
-0.7261372485
-0.5512954208
-1.002313284
-0.9481194808
-0.5379760302
-0.8698277572
-0.928900328
-0.5167808315
-0.6587973766
-1.028609028
-0.5151657762
-0.5558193213
-0.7048017213
-0.3874965316
-0.4771409511
-0.5787997484
-0.3041838449
-0.4940535036
-0.1474874808
-0.1424813715
-0.09562421369
-0.07052350771
1.60204332
0.4607317938
-0.2743713381
1.602439583
0.1182410443
0.1931949463
1.567371353
0.08916466735
-0.3870181394
1.3349358
-0.3486623455
-0.04523074271
1.148566778
0.1588091408
-0.4880460932
0.7474315755
-0.261127834
-0.3202698246
0.1787773555
0.05613708096
-0.5830702968
-0.3342598769
-0.2246564971
-0.3608804122
-0.6743637933
-0.2068097775
-0.5677243828
-0.8432740558
-0.7758238218
-0.5365641325
-0.9530608816
-0.8742508836
-0.8442738415
-1.127362413
-0.9646381871
-0.5848274294
-1.193042774
-0.7675055892
-0.6036516489
-1.065710466
-0.9670650228
-0.4707161706
-0.8606230896
-0.8326549237
-0.4681714928
-0.553449214
-0.9942805258
-0.4746701736
-0.4039444025
-0.6884929738
-0.3855448772
-0.3185826983
-0.6581116041
-0.3246561576
-0.3917346193
-0.1810013392
-0.1818927716
-0.142323616
-0.09508657746
1.67659667
0.4050900586
-0.2072810442
1.461722898
-0.1325943033
0.2117574049
1.52279097
0.08638297455
-0.3567328473
1.396487724
-0.412492235
0.003192765887
1.134802239
0.06861867425
-0.4017277932
0.736946671
-0.4750285686
-0.2844526588
0.159437656
-0.08025262396
-0.6209893591
-0.4433376216
-0.4603656648
-0.3867964509
-0.8511483244
-0.1903338096
-0.5006698424
-0.9780824412
-0.7101880571
-0.4543435819
-0.960225755
-0.7550812402
-0.9180097855
-1.090478677
-1.076376463
-0.6866220554
-1.220853651
-0.8840908183
-0.671956604
-1.101007083
-1.023396052
-0.4697789156
-0.8616624256
-0.6334591492
-0.4214996212
-0.5006304374
-0.7802918775
-0.4074075516
-0.2950877261
-0.5216496351
-0.3479295487
-0.1856199751
-0.7104797761
-0.3529834312
-0.2928263659
-0.3078900523
-0.2584439929
-0.2793313667
-0.1409307972
1.657265725
0.2305509392
-0.1950996608
1.357080142
-0.5583308922
0.207429165
1.467396035
0.1529263784
-0.3226395507
1.377635204
-0.4818930355
0.06986143958
1.102003393
0.0005915232265
-0.3696260718
0.7020464933
-0.6542191005
-0.2393287219
0.1538829797
-0.1812804688
-0.6483720346
-0.4800345135
-0.7736638752
-0.4106626902
-0.9566775069
-0.260611769
-0.5296104709
-1.097369611
-0.6845748195
-0.3979821305
-1.010455204
-0.519807311
-1.020187946
-1.093513146
-1.116920019
-0.6667604375
-1.173983263
-0.9094258511
-0.7330584824
-1.029100289
-1.070775621
-0.4853304977
-0.8064207658
-0.4603335685
-0.4337493281
-0.4741736111
-0.6021511601
-0.3571856409
-0.2569235471
-0.3196763026
-0.3051953596
-0.09299655633
-0.6872741829
-0.3533509605
-0.1553575618
-0.3813305931
-0.3006803154
-0.4036903124
-0.1696571994
1.618015996
0.1601022766
-0.2188678232
1.400230708
-0.8088418022
0.1564124814
1.481268143
0.2404074875
-0.2766859523
1.32831409
-0.562480487
0.08331188572
1.095389427
-0.05313083429
-0.373750695
0.6734831584
-0.7863246139
-0.2036874352
0.1313921122
-0.2759846634
-0.5764775139
-0.4766049341
-1.063052103
-0.4090713297
-0.9846794202
-0.3895872656
-0.576207425
-1.201840884
-0.7976218425
-0.439295684
-1.138555507
-0.3100192927
-1.090393633
-1.165237677
-1.072826894
-0.6108349831
-1.113734269
-0.7442967253
-0.6993086719
-0.8939142345
-1.02179604
-0.5278862035
-0.7189374659
-0.367988734
-0.4842989739
-0.4969553418
-0.5541866183
-0.3700614098
-0.3083046884
-0.1649852959
-0.2838891118
-0.08430394875
-0.5654832852
-0.3212456201
-0.0307858834
-0.2892520556
-0.2631295234
-0.4205114578
-0.1445912715
1.512857471
0.256132319
-0.3086027181
1.465779691
-0.7946428342
0.1001660384
1.443761813
0.2295367664
-0.3059488251
1.231682326
-0.753317951
0.05599163578
1.031248221
-0.1270476583
-0.4096230487
0.6071662871
-0.9647992424
-0.1585734628
0.07347516484
-0.3776806814
-0.4760838246
-0.4523817897
-1.253130169
-0.3563622843
-0.8958003256
-0.5027956582
-0.6340103616
-1.188790662
-1.036868654
-0.4439473164
-1.256708038
-0.2876719863
-0.8637799527
-1.234727622
-1.030396496
-0.4157915795
-1.038222861
-0.4214266304
-0.5870920262
-0.7554728836
-0.8541537652
-0.5041521693
-0.6129296874
-0.2975194587
-0.5385645766
-0.465550847
-0.6193320607
-0.4185323418
-0.3274697283
-0.08005874297
-0.3132728924
-0.08133128488
-0.3987242805
-0.2846719821
0.08891356066
-0.04977026856
-0.1753710183
-0.3214017753
-0.08324367008
1.488846759
0.4396257072
-0.3358706556
1.538422927
-0.7076804955
0.06658880168
1.405178314
0.07682180939
-0.3118487026
1.180129291
-1.037792433
0.0313503943
0.9857614123
-0.2571467675
-0.3700135567
0.5512956184
-1.22089993
-0.1173485202
0.01997433564
-0.4900161931
-0.3654457206
-0.4431234361
-1.353504108
-0.3130421024
-0.8341034385
-0.562933986
-0.6242515786
-1.160739721
-1.262207748
-0.4897366609
-1.304015369
-0.3910548464
-0.6857863012
-1.244883456
-0.9856620439
-0.3655842527
-1.011990703
-0.1292893808
-0.4795884894
-0.724295599
-0.6725604392
-0.4708441491
-0.5695528119
-0.2031263593
-0.509826633
-0.4272422395
-0.6518144945
-0.45817061
-0.3111865868
-0.02406772834
-0.3593061492
-0.087748587
-0.2595655753
-0.264231916
0.1236480747
0.1980875589
-0.09913829434
-0.1928882695
-0.03602417701
1.376208859
0.5715391555
-0.2876600355
1.400964827
-0.7350024136
0.1073812746
1.287932851
-0.09600913708
-0.3164356855
1.093621343
-1.311917225
0.02610727856
0.912406662
-0.4002200829
-0.3390576847
0.4905611899
-1.518940475
-0.1019568989
-0.01037821424
-0.6122408092
-0.3510953119
-0.4373828586
-1.459243293
-0.2702713387
-0.7908155502
-0.6135814763
-0.5713102653
-1.105313275
-1.448351911
-0.4335004493
-1.209768681
-0.4441948591
-0.6182149544
-1.147453331
-0.9710792696
-0.3489635488
-0.9657121511
0.00156107848
-0.4438844288
-0.7274168993
-0.606745602
-0.3776560675
-0.5384437848
-0.07229778916
-0.4211251177
-0.3315791334
-0.5709559291
-0.4237772159
-0.1986202156
0.06730502227
-0.3826708731
-0.02502316117
-0.1978984473
-0.2769623375
0.1396602677
0.3415915574
-0.09624247108
-0.1135315672
-0.03369799867
1.300212279
0.5879997128
-0.1633905945
1.241528582
-0.8604636468
0.1994755157
1.242330197
-0.1345906158
-0.2542234591
1.073829484
-1.412775384
0.04364875559
0.8875148267
-0.4849182747
-0.2786942709
0.4809220025
-1.740259954
-0.1042750463
0.007330008703
-0.7684286387
-0.342642377
-0.4341431445
-1.645169691
-0.2341249631
-0.7905369545
-0.740068042
-0.3968529662
-1.047664605
-1.564525783
-0.3638587398
-1.096474393
-0.4246011226
-0.517812666
-1.038317539
-0.9761367035
-0.3983287319
-0.962062566
-0.05864240977
-0.389588456
-0.7793297604
-0.6629703262
-0.3048868934
-0.558857975
0.06871843881
-0.2899396362
-0.2825109036
-0.398175595
-0.3470030808
-0.1193675168
0.2067170576
-0.3513387282
0.005468405476
-0.1782006411
-0.2902172804
0.09587862591
0.3576267132
-0.1438011805
-0.1169246005
-0.06518721581
1.110211402
0.5521910208
-0.102504732
1.023357374
-1.005088659
0.2289309168
1.102300054
0.01619592997
-0.2322897302
0.9652407987
-1.408067202
0.04193530897
0.7863848479
-0.492716723
-0.2839191485
0.4405253954
-1.869846243
-0.1278062483
0.01277497974
-0.9257625789
-0.3797188204
-0.4145755185
-1.899033096
-0.2060662717
-0.7571225
-0.8923584542
-0.2971532444
-0.9258155211
-1.641350227
-0.2931814232
-0.9311874317
-0.3632740832
-0.5055056645
-0.9326554162
-0.9828791059
-0.3848634633
-0.8780248832
-0.1402938064
-0.3491819489
-0.7085811782
-0.7157040168
-0.2458738817
-0.4899524727
0.1790480683
-0.2441807377
-0.2083142602
-0.2567343234
-0.291837029
-0.04812421139
0.3414522964
-0.2996768539
0.0618817136
-0.179184924
-0.2753138098
0.09408996715
0.331695192
-0.1808052861
-0.1710202535
-0.09229897415
1.044423807
0.5514291084
-0.0980207425
0.9721276957
-1.050499501
0.1829374236
1.036772647
0.1610686781
-0.1822406982
0.8820623505
-1.438625673
0.05037438185
0.6844153883
-0.5144622123
-0.215845723
0.3957978851
-1.960966167
-0.1050321141
0.02194346524
-1.07072789
-0.3210465014
-0.3829195413
-2.123553225
-0.1662574854
-0.6707465933
-0.9875042812
-0.2181364931
-0.7809977625
-1.681368418
-0.2825649702
-0.839238006
-0.3869301333
-0.4326330733
-0.9088056037
-1.047632426
-0.3290894995
-0.839550513
-0.137560568
-0.2329935121
-0.6349574662
-0.6698928775
-0.2130162165
-0.4243613057
0.2470290013
-0.2530488327
-0.2072373634
-0.2119424979
-0.2875750001
-0.07389533269
0.4027032987
-0.2378985404
0.03164788031
-0.1698615683
-0.2171725335
0.05389463739
0.3184388033
-0.1567508811
-0.2172405893
-0.08087651987
0.8928069689
0.6034259324
-0.1657400356
0.8504102632
-1.038141001
0.07707879454
0.8388664291
0.1343924809
-0.1767740456
0.6916159304
-1.613419522
0.03610015873
0.5077284089
-0.6060346603
-0.1764347738
0.2865266465
-2.071413054
-0.08607332906
0.002455546335
-1.135210905
-0.2955308995
-0.3176140689
-2.233082415
-0.1659250661
-0.5128825976
-0.9815254316
-0.2906119312
-0.5925888598
-1.71915115
-0.3136717619
-0.7182043202
-0.5762211163
-0.4072914189
-0.816806822
-1.214657645
-0.2431668854
-0.7128978126
-0.05593598866
-0.1520278376
-0.4902817271
-0.5289870895
-0.1963335838
-0.3038856262
0.2882653809
-0.304689445
-0.158525108
-0.2691724247
-0.3036742242
-0.06769706481
0.3828909978
-0.1967207126
0.03691973496
-0.1499878575
-0.1577415512
0.0682084423
0.3623164179
-0.1080275285
-0.228186718
-0.05133412043
0.869430445
0.6667437855
-0.1865673999
0.8051017277
-1.06916046
0.01392456334
0.7080785863
-0.03007245692
-0.1217981724
0.5892557688
-1.866243074
0.06038626835
0.4173199597
-0.7485036921
-0.08763076496
0.2243535766
-2.207605494
-0.03610407329
0.01963021619
-1.120054118
-0.1823001688
-0.2288966872
-2.248249475
-0.1499069439
-0.3950671481
-0.9613087379
-0.2945861519
-0.4963380794
-1.791743389
-0.2835809133
-0.6320491624
-0.8268174796
-0.2784288287
-0.6873903818
-1.428565416
-0.1801490029
-0.6215568579
-0.02373974919
-0.09602270025
-0.4518332498
-0.4570430634
-0.177930267
-0.2938224065
0.2791842906
-0.2463864342
-0.1651501894
-0.3547754328
-0.2469793247
-0.08636557268
0.3307200529
-0.1591626321
-0.008618104097
-0.1408862021
-0.1300208441
0.01081664441
0.4070059893
-0.09657960438
-0.2162028209
-0.04369224793
0.6635126395
0.6819072379
-0.1578916944
0.5445496052
-1.185336152
-0.004101213658
0.4515704796
-0.1865809769
-0.1015464694
0.4071636419
-2.02834339
0.0389198629
0.3073308451
-0.8418798705
-0.1227111564
0.1605571247
-2.311657189
-0.07247730495
0.02293573546
-1.078673807
-0.1550578275
-0.1477169626
-2.259260385