/*--------------------------------*- C++ -*----------------------------------*\
| =========                 |                                                 |
| \\      /  F ield         | OpenFOAM: The Open Source CFD Toolbox           |
|  \\    /   O peration     | Version:  5.x                                   |
|   \\  /    A nd           | Web:      www.OpenFOAM.org                      |
|    \\/     M anipulation  |                                                 |
\*---------------------------------------------------------------------------*/
FoamFile
{
    version     2.0;
    format      ascii;
    class       volScalarField;
    location    "7.2";
    object      rho;
}
// * * * * * * * * * * * * * * * * * * * * * * * * * * * * * * * * * * * * * //

dimensions      [1 -3 0 0 0 0 0];

internalField   nonuniform List<scalar> 
30538
(
1.268547176
1.289230926
1.289630494
1.289636603
1.289577491
1.289538636
1.289554657
1.289537086
1.289524464
1.289566433
1.289660866
1.289732067
1.289786863
1.289864012
1.289927469
1.289932356
1.289891827
1.289860645
1.289930233
1.295489225
1.268588811
1.289311753
1.289610676
1.28961348
1.289609995
1.289584914
1.289577955
1.289560097
1.289559698
1.289592507
1.289661147
1.289743647
1.289827286
1.289898173
1.289931032
1.289925649
1.289909842
1.289907064
1.289977265
1.295499217
1.268832496
1.289396661
1.28959296
1.289578528
1.289611933
1.289587903
1.289557671
1.289546496
1.289572622
1.289601961
1.28964331
1.28972587
1.289831209
1.289898797
1.289914009
1.289913417
1.289923033
1.289936167
1.28999137
1.295554013
1.268884147
1.289454648
1.289610919
1.289578095
1.289607142
1.28956976
1.289522324
1.289522464
1.289576269
1.289612871
1.289642633
1.289715543
1.289816135
1.289879125
1.289902885
1.289927922
1.289954892
1.289951507
1.289975242
1.295510167
1.269409361
1.289442348
1.2896329
1.289590757
1.289586508
1.28954811
1.289504056
1.289504739
1.289568383
1.289620924
1.289660874
1.289717245
1.289790718
1.289851115
1.289904652
1.289960189
1.289981233
1.289938237
1.289925771
1.295636
1.269549507
1.289369113
1.289631234
1.289592404
1.289559182
1.289534437
1.289510154
1.28950345
1.28955068
1.289614057
1.289674288
1.289723258
1.289772327
1.289832606
1.289905951
1.28997132
1.289974232
1.28990073
1.289863924
1.295537087
1.270482152
1.289334608
1.289617477
1.289580685
1.289543389
1.289533139
1.289532948
1.289514229
1.289535915
1.289595517
1.289668984
1.289725336
1.289777648
1.289839643
1.289905912
1.289948196
1.289933901
1.289864345
1.289840524
1.295688338
1.270801599
1.289353633
1.289595938
1.289559157
1.289535444
1.289530102
1.289545064
1.289530065
1.289533307
1.2895755
1.289645076
1.289719985
1.289796246
1.289863564
1.28990069
1.289904672
1.289885165
1.289850799
1.289862405
1.295540146
1.272217464
1.289426778
1.289569205
1.289526041
1.289518155
1.289512985
1.289533673
1.289538345
1.289545034
1.289565133
1.289622666
1.289715723
1.289819855
1.289888156
1.28989844
1.289869483
1.289855804
1.289864778
1.289912304
1.295628274
1.272656609
1.289473208
1.289545665
1.289497983
1.2894943
1.289485038
1.289503343
1.289530851
1.289552339
1.289565885
1.289616958
1.289719153
1.289829082
1.289894214
1.289895271
1.289859498
1.289852986
1.289883946
1.289947906
1.295286864
1.274469278
1.28950233
1.289540124
1.289488522
1.289480357
1.289463225
1.289474648
1.289508009
1.289542029
1.289564848
1.289628512
1.289730934
1.289826862
1.28988254
1.289890335
1.289868358
1.289867012
1.289885949
1.289940746
1.295169769
1.274917242
1.289498232
1.289559536
1.289503981
1.289485454
1.2894615
1.289459942
1.289481882
1.289518349
1.289562966
1.2896429
1.289739563
1.289817227
1.289868832
1.289885787
1.289886341
1.289879314
1.289866986
1.289892515
1.29461999
1.277193375
1.289519881
1.289583687
1.289523066
1.289499931
1.289474908
1.289464573
1.289471518
1.289508244
1.289565235
1.289647242
1.289734622
1.289810172
1.289861801
1.289886732
1.289898144
1.289882176
1.289841172
1.289834682
1.294352679
1.277675398
1.289545891
1.289597466
1.289532287
1.289503133
1.289488285
1.289485263
1.289486684
1.289527063
1.289580973
1.289642511
1.289712862
1.289794444
1.289856029
1.289893213
1.289907231
1.289882969
1.289826352
1.289793568
1.293656397
1.280390845
1.289594618
1.289597717
1.289529494
1.289494413
1.289496852
1.289517267
1.289524811
1.289567282
1.289603698
1.289634609
1.289687427
1.289768914
1.289841498
1.289893186
1.2899079
1.289884378
1.289830797
1.289789257
1.293279626
1.280816649
1.289618829
1.289602397
1.289542202
1.289501789
1.289515513
1.289554885
1.289567998
1.289600769
1.289623457
1.28964225
1.289683249
1.289743703
1.289815914
1.28987726
1.289898542
1.289879258
1.28983969
1.289808196
1.292506788
1.283880962
1.289640787
1.289624757
1.289586137
1.289548912
1.289558236
1.289593317
1.289604823
1.289617446
1.289631532
1.289668361
1.289707837
1.289735781
1.289789122
1.289848373
1.28987398
1.289858923
1.289835875
1.289829916
1.292012161
1.284155149
1.28964756
1.289664364
1.289654206
1.289629934
1.289621953
1.289632449
1.289633797
1.289628786
1.28963802
1.289708867
1.289750027
1.289749185
1.289775235
1.289816793
1.289839113
1.289824421
1.289815561
1.289837212
1.291196843
1.287558285
1.289418508
1.289697113
1.289324067
1.289685534
1.289248931
1.289629893
1.289312815
1.289625463
1.289444051
1.289729871
1.289683569
1.28979125
1.289730279
1.289825455
1.289788102
1.28983073
1.289783107
1.289834594
1.290658494
1.310332435
1.259352206
1.303866829
1.254773419
1.296897153
1.254251494
1.292569026
1.25779639
1.291657949
1.264342786
1.293860772
1.272246935
1.297466359
1.279373388
1.300266659
1.283799616
1.300840473
1.284587348
1.29900265
1.282648964
1.264593676
1.289277338
1.289640212
1.289622352
1.289593936
1.28954834
1.289560513
1.289589707
1.289595072
1.289586371
1.28964857
1.289750776
1.28984035
1.289892343
1.289908777
1.289916973
1.28992534
1.289923983
1.289997623
1.29702681
1.264615638
1.289311278
1.289626432
1.289605672
1.289606893
1.28958286
1.289587963
1.289604926
1.289623363
1.289630352
1.28967517
1.289758166
1.289853981
1.289922153
1.289945026
1.28994748
1.289949746
1.289945946
1.29001397
1.297063525
1.26484062
1.289334801
1.289620564
1.289590884
1.289608213
1.289594249
1.289583269
1.289582117
1.289622289
1.289652764
1.289683995
1.289740999
1.289833648
1.289913123
1.289952268
1.289962057
1.289957621
1.289940958
1.289996618
1.297155902
1.264889067
1.289362094
1.289646854
1.289611364
1.289620391
1.289604523
1.289574333
1.289554932
1.289606611
1.28965769
1.289694869
1.289738333
1.289813697
1.289888754
1.289944243
1.289971244
1.289966015
1.289934696
1.289973979
1.297217794
1.26542688
1.289370394
1.289668247
1.289625571
1.289614584
1.289603562
1.289575515
1.28954356
1.289583378
1.289646323
1.289706658
1.289751181
1.289800163
1.289863191
1.289929001
1.289972763
1.289968004
1.289925445
1.289950039
1.297407516
1.265606118
1.289348698
1.289656548
1.289611518
1.28959129
1.289592826
1.289587637
1.289549491
1.289564271
1.289626665
1.289712369
1.289766106
1.289800253
1.289853441
1.28991717
1.289958216
1.289952243
1.289912709
1.289934954
1.297462686
1.266603221
1.289352671
1.289632514
1.289588925
1.289578574
1.289584455
1.289596624
1.28956038
1.289559921
1.289614647
1.289703689
1.289764294
1.289806428
1.289864496
1.289915884
1.289936639
1.28992526
1.289898896
1.289932013
1.297621752
1.267012539
1.289371275
1.289609396
1.289577171
1.289580258
1.289574518
1.289582247
1.289559969
1.289569243
1.289613306
1.289683124
1.289742885
1.289807265
1.289880936
1.289923036
1.289918149
1.28990115
1.289890723
1.289933479
1.297541423
1.268557817
1.289424619
1.28960338
1.28957197
1.289575281
1.289556343
1.289550205
1.289550971
1.289586814
1.289621922
1.28966107
1.289717096
1.289804814
1.289894506
1.289931941
1.28991448
1.289896321
1.289890665
1.289930293
1.297527451
1.269155518
1.289453028
1.289606984
1.289563361
1.289554044
1.289530029
1.289518015
1.289539636
1.289598955
1.289626968
1.28965269
1.289715102
1.289809579
1.289895767
1.289928774
1.289918127
1.289907436
1.289894943
1.289920235
1.297186257
1.271201329
1.289474868
1.289605948
1.289551301
1.289527877
1.289509079
1.289505587
1.289534082
1.289590605
1.289618568
1.289658546
1.289735426
1.289823672
1.289888622
1.289911729
1.289916784
1.289919901
1.289897738
1.289909598
1.296919185
1.271871612
1.289468034
1.289596687
1.289542797
1.289513801
1.289501084
1.289513201
1.289530114
1.289562467
1.289600531
1.289668279
1.289756454
1.28983677
1.289880368
1.289892601
1.289907968
1.2899163
1.289894391
1.289903035
1.296314233
1.274493938
1.289491329
1.289594406
1.289538327
1.289514361
1.289508073
1.2895286
1.289526799
1.289539392
1.289590321
1.289675999
1.289761295
1.289834916
1.289874893
1.289892054
1.289905603
1.289902979
1.289880628
1.289891463
1.295844648
1.275248498
1.289526189
1.289599762
1.289540806
1.28951493
1.289516152
1.289539445
1.289526596
1.289540961
1.28960391
1.289688167
1.289749879
1.289808927
1.289868486
1.289910073
1.289915742
1.289889856
1.289859236
1.289867949
1.295043288
1.278395705
1.289594927
1.289609148
1.289543709
1.289509938
1.289520978
1.289545491
1.289540021
1.289576719
1.289638195
1.289699918
1.289732346
1.289773747
1.289854898
1.28992452
1.289925451
1.289880962
1.289838932
1.289838162
1.294403247
1.279098739
1.289637207
1.289623334
1.289560038
1.289521838
1.289532038
1.289554566
1.289572842
1.289625644
1.289667801
1.289706304
1.289728229
1.289757628
1.289837756
1.289906812
1.289912118
1.289871671
1.28982965
1.289822188
1.293470875
1.282656703
1.289669604
1.289641717
1.289594841
1.289569175
1.289564895
1.28957442
1.289619022
1.289669217
1.289677091
1.289699911
1.289736668
1.289774806
1.289821446
1.289857669
1.289871444
1.289857049
1.289832136
1.289823781
1.292710566
1.283154815
1.289673595
1.289668537
1.289644929
1.28964571
1.289616578
1.289610234
1.289662852
1.289698393
1.289673078
1.28968884
1.289750426
1.28980633
1.289814635
1.289802944
1.289819762
1.289834224
1.289834531
1.289834549
1.29173909
1.287104831
1.289406794
1.289687365
1.289248949
1.289676066
1.289174323
1.289596733
1.289294194
1.289677617
1.289443927
1.289681391
1.289653508
1.289839264
1.289768698
1.28981834
1.289774014
1.28985682
1.289816979
1.289842502
1.290957113
1.310605983
1.257331615
1.302749487
1.251645982
1.294381052
1.250690606
1.289450706
1.254598053
1.289203295
1.262092911
1.292834753
1.271091782
1.297944613
1.279098322
1.301938968
1.283856978
1.302981628
1.284367353
1.300853212
1.281818111
1.260485691
1.289362655
1.289615279
1.289580797
1.289642221
1.289605952
1.289565313
1.289631785
1.289697942
1.289650966
1.289650232
1.289740304
1.289863228
1.289924132
1.289907402
1.28989846
1.289935651
1.289962729
1.290060574
1.301531822
1.260476083
1.289332505
1.289651025
1.289607589
1.289624777
1.289611069
1.289605413
1.289643898
1.289704636
1.289707964
1.289717966
1.289758342
1.28985159
1.289936571
1.289968484
1.289969458
1.289975847
1.289968575
1.290051089
1.301575055
1.260683886
1.289267078
1.289675619
1.28963278
1.289610378
1.289618516
1.289631336
1.289621786
1.289675712
1.28972922
1.289754522
1.289756067
1.28981386
1.289908927
1.289981833
1.29000236
1.28998534
1.289944242
1.29000792
1.301846256
1.260646869
1.289231777
1.289706142
1.289672804
1.289630134
1.289652687
1.289663285
1.289607135
1.289635664
1.289707271
1.289766061
1.289769005
1.289800165
1.289877966
1.289959975
1.289995497
1.289973756
1.289922331
1.289978249
1.301930828
1.261267932
1.289276723
1.289719734
1.289679281
1.289641226
1.289663328
1.289686003
1.2896232
1.289606538
1.289655327
1.289749333
1.289798474
1.289822348
1.289857272
1.289918095
1.289958581
1.289950206
1.289911691
1.289977481
1.302414731
1.26144474
1.289364423
1.289701964
1.289650867
1.289631245
1.289645602
1.289694649
1.289659638
1.289600724
1.289606261
1.289723819
1.289832621
1.289859109
1.289860755
1.28988903
1.289924201
1.289927398
1.28991236
1.28999547
1.302438743
1.262617646
1.289429926
1.289657471
1.28962187
1.289627562
1.289624615
1.289680661
1.289671574
1.289615585
1.289600935
1.289712732
1.289829313
1.289864388
1.289868626
1.289892162
1.289915253
1.289915532
1.289912536
1.290009085
1.302842229
1.262970251
1.289416384
1.289623199
1.289618623
1.289634994
1.289616318
1.289644257
1.28963623
1.289625672
1.289635834
1.289721828
1.289794002
1.289825376
1.289864469
1.289916383
1.289935131
1.289919746
1.289906819
1.28998517
1.302592599
1.264770774
1.289404047
1.28964314
1.289637335
1.289642315
1.289615627
1.289594578
1.289579068
1.289628478
1.28968019
1.289732453
1.289747032
1.289772632
1.289855712
1.289945358
1.289965981
1.289937285
1.289895503
1.289933942
1.302618081
1.26533243
1.289398244
1.289686826
1.289649504
1.289622813
1.289607373
1.289563421
1.289545942
1.289631599
1.289702948
1.289734879
1.289732241
1.289765654
1.289862438
1.289954067
1.289979544
1.289951908
1.289886494
1.289879413
1.301939296
1.267821075
1.289438939
1.289700842
1.289633522
1.289580933
1.289582996
1.289565637
1.289558181
1.289634035
1.289692033
1.289724412
1.289748762
1.28981093
1.28988184
1.289930267
1.289954064
1.289947791
1.289888581
1.289869811
1.301526125
1.268466212
1.289446382
1.289656333
1.289595593
1.289545399
1.289551365
1.289589656
1.289599
1.289622825
1.289654131
1.289704315
1.289777639
1.289861006
1.289899626
1.289898478
1.289910348
1.289927353
1.289902137
1.289903564
1.300506957
1.271749627
1.289484552
1.289605089
1.289569465
1.289531027
1.289531974
1.289608561
1.289620048
1.289604517
1.289620642
1.289699693
1.289794081
1.289873862
1.289898197
1.289891108
1.289889724
1.289905743
1.28991131
1.289943245
1.299736991
1.272443578
1.289507844
1.289593393
1.2895712
1.289536716
1.289531794
1.289601655
1.289604627
1.289583775
1.289620914
1.289729856
1.289799125
1.289837469
1.289876888
1.289908162
1.289905366
1.289894674
1.289898533
1.289948051
1.298410607
1.276400296
1.289586147
1.289623972
1.289585846
1.28954677
1.289544307
1.289573275
1.289576351
1.28959335
1.289663468
1.289778504
1.289795139
1.289782971
1.28985251
1.289931988
1.289933531
1.289888726
1.289862697
1.289900662
1.297317036
1.277007587
1.289643486
1.289658893
1.289597843
1.289562117
1.289565772
1.289551436
1.289575833
1.289643269
1.28971523
1.289792969
1.289787197
1.289772954
1.289848597
1.28991983
1.289922613
1.289873691
1.289832222
1.289845015
1.295830371
1.281497889
1.289703566
1.289673816
1.289601256
1.289596219
1.289596936
1.289556905
1.289612354
1.289714624
1.289743911
1.289752923
1.289764754
1.289815571
1.28986003
1.289872045
1.289866444
1.289848347
1.289820165
1.289813175
1.294560929
1.281826527
1.289708193
1.289676851
1.289608317
1.289645769
1.289630888
1.289593879
1.289665624
1.289766125
1.289742352
1.289683393
1.289730922
1.289857754
1.289869285
1.289812669
1.289800235
1.289822485
1.289826676
1.289812163
1.293051047
1.286795977
1.289340192
1.289675688
1.289059075
1.289650658
1.289055067
1.289593566
1.289242746
1.289745506
1.289494691
1.289646303
1.289624113
1.289873967
1.28985014
1.289835776
1.289799424
1.289856571
1.289848429
1.289830127
1.291763691
1.313815504
1.252104475
1.304448598
1.245508425
1.294436529
1.245051223
1.288535897
1.250957472
1.288340891
1.261167908
1.292696445
1.272953972
1.298708588
1.283194146
1.303191103
1.289049762
1.303699626
1.289065114
1.300017565
1.285133094
1.247969276
1.289158182
1.289580887
1.289564985
1.289728078
1.28972243
1.289631156
1.289645053
1.289724436
1.289761971
1.289765828
1.289745369
1.289804272
1.289899421
1.289955647
1.289940652
1.289929652
1.289922154
1.290047218
1.308666141
1.247852255
1.289118655
1.289713091
1.289671713
1.289688656
1.289688697
1.289680945
1.289678657
1.289740769
1.289797646
1.289821801
1.28977895
1.289794349
1.289890197
1.289978957
1.28999415
1.289977075
1.289946774
1.290054266
1.308903612
1.247921683
1.28901764
1.28978177
1.289732616
1.289644379
1.289670012
1.289727654
1.289692266
1.289719992
1.289771601
1.289818032
1.289799193
1.289792966
1.289864355
1.289953297
1.289990889
1.289981145
1.289940146
1.290028962
1.309391177
1.24769298
1.288932285
1.289779354
1.289735943
1.289643563
1.289699673
1.289775722
1.289718425
1.289696201
1.289712771
1.289773843
1.289817775
1.28984085
1.289871564
1.28990977
1.289944417
1.289953331
1.289928615
1.290014998
1.309957295
1.248219879
1.289025914
1.289759028
1.289712447
1.289670706
1.289697095
1.289784747
1.289767555
1.289697235
1.289635984
1.289701808
1.289844834
1.289917877
1.289883907
1.289850731
1.289880032
1.289916256
1.289916765
1.290018093
1.310731212
1.248354211
1.28923561
1.289744959
1.289700785
1.289704561
1.289651149
1.289753112
1.289834837
1.289729665
1.289577833
1.289637358
1.289863159
1.289965202
1.289887861
1.289819329
1.28985053
1.28990154
1.289910372
1.290019012
1.311300934
1.2496571
1.28934725
1.289703595
1.289688475
1.289717955
1.289616554
1.289713853
1.289840819
1.289767703
1.289587252
1.289645373
1.289855367
1.289942995
1.289868681
1.289827075
1.289880534
1.289916079
1.289902215
1.290004037
1.311795314
1.250111575
1.289268429
1.28966317
1.289690339
1.289708214
1.289628772
1.289689586
1.289768308
1.289760399
1.289656908
1.289855954
1.28983636
1.289867102
1.289823815
1.289857381
1.289944774
1.289947806
1.28989347
1.289968105
1.311866333
1.252269142
1.289163409
1.289689768
1.289706257
1.28969923
1.289674697
1.289671508
1.289665146
1.289701071
1.289720592
1.289788641
1.289798127
1.289774349
1.289782408
1.289887821
1.289993058
1.289971979
1.289884627
1.289920831
1.311621009
1.253290256
1.289135992
1.289759578
1.289719885
1.289683083
1.289699447
1.289659371
1.289604833
1.289650525
1.289742571
1.289811414
1.289786414
1.289764462
1.289800124
1.289903708
1.289989586
1.289966395
1.289877771
1.289880765
1.310878383
1.256636268
1.289259256
1.289792661
1.289696425
1.289641315
1.289670808
1.289658885
1.289614909
1.289653727
1.289734391
1.289775454
1.289782696
1.289831795
1.289876794
1.289911215
1.289944356
1.289932952
1.289874962
1.289873698
1.309776903
1.258040565
1.289366675
1.289719049
1.289647797
1.289597058
1.289597864
1.289663851
1.289684469
1.289702291
1.289702645
1.289707622
1.289782288
1.289903988
1.2899426
1.289907477
1.289887723
1.289893847
1.289881957
1.289901682
1.308272431
1.262623441
1.289455015
1.289612931
1.289618835
1.289577507
1.289534472
1.289653576
1.289735082
1.289735468
1.289660322
1.28967056
1.289800676
1.289921025
1.289942745
1.289904158
1.289868011
1.289879407
1.289895149
1.289940171
1.306539113
1.264186594
1.289453114
1.289587828
1.289633798
1.289607081
1.289520016
1.289615729
1.289724359
1.289710098
1.289631481
1.289708373
1.289839302
1.289881874
1.289883806
1.289889465
1.289887895
1.289895207
1.289903587
1.289955645
1.304492269
1.269637759
1.289510965
1.289652923
1.289670145
1.28965034
1.289554973
1.289563305
1.289659179
1.289654402
1.289648529
1.289805947
1.289877249
1.289825295
1.289821464
1.289881623
1.289926833
1.289920335
1.289891932
1.289924023
1.302301465
1.271077247
1.289570443
1.28973049
1.28967656
1.28966269
1.289610555
1.289549399
1.289602945
1.289635102
1.28970889
1.289856607
1.289869761
1.289813963
1.289816883
1.2898725
1.289923064
1.289910174
1.289862046
1.289864165
1.300052082
1.27734587
1.289685998
1.289757386
1.289637832
1.28963911
1.289659232
1.289597358
1.289597321
1.289672917
1.28978424
1.289834645
1.289803591
1.289831587
1.289863587
1.289876463
1.289874632
1.289859053
1.289822775
1.289805382
1.297634336
1.278353675
1.289724221
1.289733445
1.289590043
1.289604154
1.289680552
1.289689069
1.289630573
1.289725233
1.289833703
1.289759406
1.289705683
1.289824666
1.289901436
1.28987245
1.289818736
1.289798685
1.289791317
1.289769181
1.295395659
1.285280013
1.28921889
1.289684506
1.288741377
1.289490655
1.288782654
1.289619144
1.288992378
1.289667473
1.289487741
1.289692725
1.289525674
1.289808774
1.289899182
1.289931963
1.289854042
1.289826769
1.289797216
1.289762695
1.292978938
1.314823228
1.245257142
1.300822656
1.23500568
1.2857794
1.233276918
1.27750638
1.240670221
1.279623049
1.254360751
1.289191528
1.27012799
1.300622594
1.283682998
1.309515265
1.290857538
1.311869985
1.289370363
1.306713642
1.28259048
1.237436077
1.288771123
1.289601135
1.289641246
1.289766736
1.289825203
1.289813623
1.289720058
1.289690202
1.289831852
1.289896431
1.289793021
1.289775345
1.289844887
1.289943364
1.289977829
1.289914074
1.289838794
1.290006328
1.320970868
1.237209307
1.288841301
1.289826602
1.289837115
1.289768873
1.289764906
1.289825157
1.289786021
1.289736873
1.289785989
1.289874588
1.289835216
1.289774165
1.289791939
1.289910848
1.289985706
1.289962141
1.289887198
1.29003654
1.321332513
1.237198818
1.288816576
1.289907684
1.289901635
1.289734378
1.289728471
1.289831396
1.289831461
1.289761479
1.289719239
1.28981913
1.289866324
1.289794343
1.289765798
1.289854186
1.289925709
1.289944849
1.289904926
1.2900456
1.322462558
1.236608936
1.288727932
1.28980701
1.289790838
1.289714371
1.28975282
1.289845417
1.289874771
1.289819821
1.289686175
1.289745135
1.289906456
1.289883026
1.289823046
1.289813769
1.289839684
1.289893668
1.289911761
1.290054845
1.323315754
1.237086094
1.288860003
1.289716674
1.289690372
1.289761648
1.289758251
1.289802369
1.289897245
1.289903368
1.289693859
1.289650267
1.289863013
1.289970186
1.289920919
1.289798917
1.289755598
1.289835296
1.289904345
1.290051085
1.325019725
1.236920135
1.289084346
1.289720968
1.289689454
1.289862498
1.289728791
1.289696517
1.289879044
1.289969768
1.289740846
1.289587284
1.2897035
1.289983592
1.290001478
1.289822935
1.289736461
1.289817646
1.289889338
1.290015427
1.325686883
1.23837388
1.289189197
1.289740917
1.289726093
1.289892434
1.289697785
1.289630752
1.289846657
1.289998005
1.289817683
1.292116981
1.289638479
1.289942603
1.28998371
1.289836209
1.289783338
1.2898519
1.289879206
1.289958671
1.326961976
1.238664325
1.289044993
1.289751527
1.289751398
1.289831105
1.289708102
1.289658687
1.289817793
1.289945125
1.290063268
1.301681468
1.289828459
1.289862596
1.289886886
1.289812402
1.289849394
1.289907414
1.289876914
1.289914018
1.326748355
1.241303356
1.288894178
1.289759424
1.289751794
1.289773658
1.289765582
1.289732461
1.289764009
1.289817631
1.289831629
1.29071413
1.289791733
1.289808795
1.289786809
1.289784344
1.289891256
1.289945297
1.289880846
1.289888957
1.326709899
1.242366511
1.288832145
1.289782348
1.289743125
1.289760907
1.289799263
1.2897683
1.289717937
1.289691278
1.289756627
1.289880584
1.289834199
1.289800877
1.289771426
1.289795584
1.289901516
1.289941472
1.289882842
1.289880736
1.325181378
1.246773117
1.289059538
1.289789853
1.28972339
1.289749216
1.289769379
1.289740465
1.289710824
1.28968721
1.289739376
1.289819288
1.289822081
1.28985086
1.289855013
1.28985114
1.289888578
1.289901504
1.289870677
1.289874965
1.323550309
1.248443217
1.289290983
1.289729738
1.289690369
1.289716867
1.289677849
1.289666344
1.289757854
1.28981631
1.289758481
1.289708496
1.289774866
1.289923521
1.289960627
1.28991423
1.289879722
1.289862915
1.289849766
1.289873563
1.320798317
1.254687712
1.289480976
1.289641723
1.289667954
1.289692861
1.289594418
1.289594666
1.289797536
1.289958832
1.289782455
1.289622837
1.289758343
1.289950382
1.289998944
1.289933886
1.28987923
1.289859395
1.289846935
1.289884933
1.317855303
1.256370302
1.289438244
1.289629383
1.289676039
1.289715532
1.289583258
1.289565447
1.289780592
1.289939541
1.289769367
1.289645251
1.289802436
1.289939743
1.289946502
1.289888275
1.289870626
1.28988379
1.289868391
1.289903969
1.314331195
1.263833816
1.289453711
1.289707059
1.289705391
1.289790771
1.289644341
1.289540579
1.289702639
1.289793972
1.289731461
1.289777595
1.28988657
1.289916371
1.289857521
1.289823451
1.289871502
1.289918776
1.289891964
1.28990909
1.310547299
1.26527976
1.289437318
1.28979055
1.289726707
1.289786617
1.289681511
1.289582137
1.289641939
1.289634512
1.289714435
1.289885594
1.289920941
1.289887843
1.289819325
1.289809885
1.289876371
1.289918975
1.289883614
1.289876446
1.30683134
1.273923046
1.289591839
1.289813416
1.289729294
1.289688886
1.28967234
1.289716314
1.289664623
1.289572163
1.289736734
1.289923204
1.289884836
1.289844328
1.289834912
1.289863419
1.289885696
1.289877762
1.289837724
1.289810415
1.302719387
1.274780785
1.289682104
1.289792701
1.28971976
1.289552544
1.289624909
1.289873346
1.289733125
1.289598434
1.289778639
1.289892838
1.289804813
1.289768626
1.28984957
1.289922907
1.289885103
1.289814131
1.289778833
1.289741945
1.299125026
1.284313693
1.288899233
1.289740954
1.288385146
1.289361745
1.288221777
1.289760102
1.288870023
1.289546003
1.289398983
1.289822884
1.289665002
1.289752159
1.289927466
1.290029948
1.290019923
1.28985503
1.289816276
1.289722354
1.29504715
1.321201698
1.233418971
1.303499347
1.220316516
1.284068115
1.219516538
1.273309151
1.231804889
1.275912972
1.252088521
1.287866751
1.274475104
1.302385858
1.29374201
1.313614509
1.304171386
1.314943894
1.301166547
1.305438685
1.29048224
1.213991403
1.287837131
1.289690655
1.289712021
1.289767621
1.289816135
1.289992235
1.290004696
1.289835956
1.289634352
1.289672126
1.289941753
1.290023253
1.289738965
1.289603016
1.289856034
1.289933284
1.289839973
1.290003384
1.340652721
1.213471659
1.288015774
1.289931156
1.289995373
1.289857088
1.289793241
1.289962195
1.290016153
1.289850738
1.289646699
1.28968515
1.289932073
1.289955274
1.28975367
1.289709795
1.289852286
1.289902723
1.289828165
1.290014834
1.341707638
1.213029076
1.288064862
1.289966213
1.290057397
1.289893719
1.289810476
1.289863985
1.289918624
1.289866404
1.289760866
1.289739634
1.289792254
1.289795082
1.289793439
1.289838093
1.289810758
1.289814806
1.289797357
1.290005312
1.343926291
1.211743342
1.287967299
1.289746067
1.289845475
1.289914706
1.289896306
1.28979227
1.289806412
1.289905866
1.289997165
1.289885984
1.289573455
1.289578559
1.289880406
1.289982808
1.289767201
1.289723396
1.289795999
1.290022377
1.346591147
1.211481813
1.288020739
1.289584157
1.289652086
1.290006929
1.290013814
1.289683253
1.289633845
1.289964648
1.290195527
1.290126203
1.289440398
1.289505515
1.289999649
1.290058103
1.289706159
1.289661294
1.289809319
1.290004005
1.349860921
1.210677674
1.288127257
1.289618283
1.289631223
1.290120434
1.290106627
1.289548041
1.289406809
1.289982681
1.290371843
1.294627639
1.289422755
1.289533045
1.290070068
1.290065407
1.289665415
1.289656579
1.289825191
1.289933182
1.352483876
1.211820608
1.288195466
1.289757009
1.289721655
1.290088159
1.290080439
1.289533088
1.289284389
1.289947376
1.29377302
1.373605168
1.29090303
1.289586386
1.290058286
1.290025391
1.289666019
1.289708992
1.289836304
1.289830983
1.354648751
1.2120893
1.288100322
1.28988938
1.289808022
1.289914231
1.289987288
1.289677023
1.289349696
1.29000599
1.301745855
1.463974921
1.299705562
1.289810745
1.290001962
1.289962814
1.289684781
1.289760453
1.289843445
1.289749241
1.355459511
1.215283606
1.288055967
1.289888628
1.289808275
1.289771294
1.289918305
1.289861017
1.289485745
1.289635374
1.29136099
1.335558209
1.290819016
1.289713605
1.289890207
1.289886986
1.2896968
1.289786346
1.289854512
1.289736861
1.354991387
1.217164285
1.288021761
1.28977098
1.289768052
1.289757679
1.289886958
1.289940719
1.28958238
1.289498321
1.289815396
1.292160426
1.289933805
1.28969365
1.289811088
1.289866737
1.289728535
1.289793166
1.289863008
1.2897555
1.352956278
1.223302196
1.288358444
1.289677321
1.289747363
1.289818589
1.289851135
1.289843463
1.289594606
1.289522241
1.289813056
1.290121757
1.289788991
1.289629495
1.289797118
1.289909906
1.289796783
1.289804271
1.289857883
1.28977797
1.349397594
1.226436697
1.288726299
1.289680073
1.289737982
1.289860616
1.289800565
1.289640552
1.289552262
1.289693241
1.289965333
1.289960649
1.289681832
1.289629841
1.289842457
1.289962281
1.289870858
1.289824387
1.289837712
1.289772965
1.344550239
1.235524734
1.289125466
1.289716914
1.289706539
1.289845294
1.289800289
1.289469921
1.289489041
1.289914428
1.290102736
1.289853052
1.289624363
1.289730301
1.289940793
1.289977683
1.289903598
1.289852161
1.289825438
1.289771588
1.338544353
1.239053702
1.289153147
1.289772517
1.289654999
1.289812629
1.289871881
1.289474512
1.289504007
1.290049611
1.290115014
1.289725352
1.28964132
1.289906064
1.290030105
1.289914655
1.289864025
1.289864499
1.289834833
1.289792513
1.332084375
1.24986028
1.289239275
1.289812939
1.289619825
1.289861039
1.289945685
1.289560953
1.289612015
1.290025136
1.289978635
1.289642383
1.289730413
1.290063427
1.29004173
1.289803246
1.289787017
1.289864766
1.289857055
1.289840054
1.324967668
1.253028109
1.289168304
1.289781033
1.289659039
1.289876755
1.289859727
1.289666454
1.289758701
1.289863982
1.289737964
1.289625937
1.289830408
1.290094899
1.289971144
1.289756436
1.289759405
1.289849947
1.289863643
1.289868628
1.318537076
1.265622506
1.289398691
1.289718885
1.289799456
1.289803479
1.289616995
1.289791368
1.289898217
1.289674306
1.289574201
1.289740421
1.289925426
1.289954366
1.289858238
1.289815582
1.289826527
1.289844528
1.289840516
1.289849495
1.311217313
1.26768508
1.289609765
1.289730496
1.289934589
1.28964583
1.289324563
1.289889753
1.289967033
1.289544286
1.289530423
1.289956164
1.29000901
1.289743713
1.289718032
1.28991402
1.289936472
1.289842304
1.28979729
1.289789161
1.30542038
1.281492851
1.288462445
1.289713079
1.287744574
1.289201034
1.286772747
1.289281283
1.288352212
1.289168854
1.288905811
1.289990563
1.28990989
1.289752623
1.289830481
1.2900814
1.29019786
1.289865634
1.289866462
1.289708064
1.298286583
1.323518642
1.219451078
1.297017908
1.1990635
1.2667057
1.195966355
1.249709107
1.212572953
1.257604913
1.24120181
1.280608426
1.272022158
1.306618033
1.298563
1.328212059
1.312394708
1.334307836
1.304778278
1.320348555
1.286543493
1.192625899
1.286912119
1.289815911
1.289728922
1.289983296
1.290003919
1.289961953
1.290086826
1.289936285
1.289609021
1.289634212
1.289853941
1.289888398
1.289737095
1.28955316
1.289608656
1.28982649
1.289833535
1.289964329
1.367054407
1.191295425
1.286978037
1.289894059
1.289980064
1.290023958
1.289945763
1.289880399
1.290071791
1.290140211
1.289796252
1.28960896
1.289811851
1.289942741
1.289797387
1.289626483
1.289656574
1.289752959
1.289777358
1.289952079
1.368874027
1.190356543
1.286988445
1.289848078
1.290053093
1.290024357
1.289928509
1.289821921