/*--------------------------------*- C++ -*----------------------------------*\
| =========                 |                                                 |
| \\      /  F ield         | OpenFOAM: The Open Source CFD Toolbox           |
|  \\    /   O peration     | Version:  5.x                                   |
|   \\  /    A nd           | Web:      www.OpenFOAM.org                      |
|    \\/     M anipulation  |                                                 |
\*---------------------------------------------------------------------------*/
FoamFile
{
    version     2.0;
    format      ascii;
    class       volScalarField;
    location    "7.2";
    object      T;
}
// * * * * * * * * * * * * * * * * * * * * * * * * * * * * * * * * * * * * * //

dimensions      [0 0 0 1 0 0 0];

internalField   nonuniform List<scalar> 
30538
(
277.5343381
273.0465431
272.9924211
272.9915502
272.9867941
272.984738
272.9876201
272.9875126
272.9874713
272.9919438
273.0003364
273.0071586
273.0125835
273.0203959
273.0267923
273.0278402
273.024567
273.0215808
273.0027712
271.8123319
277.5386992
273.0456341
272.983705
272.9826213
272.9826481
272.9817789
272.9826497
272.9824065
272.9832731
272.986796
272.9928141
273.0005501
273.0083342
273.0155084
273.0192389
273.0194309
273.0183629
273.01789
272.9993524
271.8138287
277.5036542
273.0509532
272.982622
272.9802495
272.9834774
272.9826805
272.9813901
272.9815051
272.9844578
272.9872625
272.990752
272.9983144
273.0078302
273.0145193
273.0166692
273.0173107
273.0185977
273.0196695
273.0006824
271.8033098
277.5032459
273.0543928
272.9848264
272.9810959
272.9840483
272.9819621
272.9789668
272.9797654
272.9847222
272.9877173
272.9899362
272.9964289
273.0055002
273.0115901
273.0143778
273.0172587
273.0203043
273.0202041
272.9998867
271.8070111
277.3810322
273.049627
272.9874746
272.9832149
272.9833117
272.9810408
272.9780183
272.9785502
272.9837811
272.9878187
272.9906085
272.9954699
273.0021315
273.007979
273.0132646
273.0188111
273.0215292
273.0183322
272.9960055
271.7694248
277.3302982
273.0408465
272.9880938
272.9843933
272.9820946
272.9808282
272.9792052
272.9784673
272.9819557
272.9866392
272.9908537
272.9949847
272.9995157
273.0052533
273.0124047
273.0188529
273.0201493
273.0145605
272.9918099
271.779491
277.1142613
273.0325205
272.9876557
272.9844422
272.9818171
272.9815807
272.981656
272.9793961
272.9803146
272.9844569
272.9896013
272.9943777
272.9991885
273.005131
273.0117319
273.0163661
273.016261
273.0111509
272.9907673
271.7462073
277.0478632
273.0310798
272.9865064
272.9835268
272.9820214
272.9820007
272.9830381
272.9806954
272.9797383
272.9822099
272.9869793
272.9934445
273.0004024
273.0069186
273.0111106
273.0126054
273.0120622
273.0099802
272.9940822
271.7849779
276.7526199
273.0304984
272.9847522
272.9813798
272.9811467
272.9809692
272.9822219
272.9812673
272.9803931
272.9809637
272.9848191
272.9930011
273.0024861
273.009269
273.0112451
273.0099458
273.0098775
273.0114547
272.9995188
271.7792138
276.6673941
273.0305844
272.9830918
272.9793703
272.9794186
272.978752
272.9796148
272.9804629
272.980821
272.98091
272.9844573
272.9936706
273.0038798
273.0105738
273.0118108
273.0098632
273.0103144
273.0136697
273.0042779
271.8595622
276.274409
273.0248034
272.9827001
272.9786377
272.9782411
272.9768144
272.9769869
272.9783702
272.9799356
272.9810185
272.9859849
272.9955207
273.0048395
273.0108791
273.0126866
273.0117891
273.0125205
273.0146615
273.0053917
271.8844002
276.1702161
273.0200238
272.984187
272.979731
272.9784595
272.976423
272.975515
272.9760997
272.9781153
272.981349
272.9881077
272.997488
273.00552
273.0113229
273.0138305
273.0146579
273.0146406
273.0138549
273.0031633
271.9910505
275.672487
273.0127912
272.9858303
272.9809112
272.9793105
272.9772325
272.9757178
272.9752986
272.9776013
272.9822817
272.9896227
272.9985403
273.0065555
273.0124094
273.0154801
273.0169684
273.0158673
273.0123363
273.0001734
272.0361565
275.5685587
273.0103245
272.9865123
272.9811587
272.979132
272.9780467
272.9773685
272.9767696
272.9796819
272.9844745
272.9904484
272.9981215
273.0067693
273.0134474
273.017414
273.0188439
273.0167052
273.0115361
272.9984952
272.1748503
274.9880996
273.0057011
272.9861007
272.9804354
272.9779408
272.978473
272.9800166
272.9802304
272.9836631
272.9872399
272.9908832
272.997155
273.005812
273.0133145
273.0183222
273.019541
273.0172072
273.0120316
273.0001615
272.2537375
274.8991306
273.0036756
272.9862368
272.9812144
272.9782948
272.9798628
272.9832222
272.9841752
272.9870644
272.9896239
272.9923838
272.9975754
273.0043068
273.0115869
273.0172398
273.018806
273.0167003
273.012556
273.0032289
272.4223129
274.2419954
272.99856
272.9881328
272.9849424
272.9822475
272.983464
272.9865869
272.987589
272.9889438
272.990817
272.995094
272.9999169
273.0036625
273.0091095
273.0144337
273.0162689
273.0144766
273.0117238
273.0067409
272.5336465
274.1803392
272.9969785
272.9918203
272.9919605
272.9893471
272.9901542
272.9901296
272.9911373
272.990231
272.9919639
272.9985906
273.0033506
273.0041979
273.007071
273.0107752
273.0122661
273.0106164
273.0091574
273.0081976
272.709624
273.4557364
273.0509853
272.9973521
273.0825004
273.0025997
273.0904236
273.0040703
273.0710233
272.9996531
273.0394754
273.0020864
273.027324
273.0028783
273.014529
272.9982971
273.0096055
272.9970928
273.007799
273.0041526
272.8223105
268.707636
279.5845583
270.0412773
280.6091704
271.4991919
280.7211645
272.3981463
279.9275778
272.587379
278.4817217
272.1349231
276.7647354
271.3869319
275.2183224
270.7962628
274.2735613
270.677343
274.1019258
271.0666253
274.517455
278.4165603
273.0664275
272.9928749
272.9898012
272.9874531
272.9841108
272.9860306
272.9895914
272.9910242
272.9911591
272.9969557
273.006411
273.0143694
273.0192007
273.0206782
273.0214907
273.0228612
273.0232928
272.9991434
271.4948063
278.4180891
273.0613595
272.9846141
272.9814121
272.9816207
272.9802016
272.9814825
272.9839018
272.9863441
272.9876894
272.9918795
272.9995723
273.0079723
273.014097
273.0161143
273.0164868
273.0173754
273.0175575
272.993462
271.4857244
278.3774164
273.0612514
272.9843717
272.980556
272.982213
272.9817232
272.9815856
272.9822987
272.9863732
272.9894724
272.9922744
272.9975476
273.0055245
273.0124878
273.0158787
273.0169607
273.0173824
273.0165503
272.9923434
271.4627252
278.3717241
273.0617398
272.9870477
272.9829055
272.9839465
272.9833413
272.9814866
272.9803961
272.9851649
272.9896822
272.9927294
272.9965964
273.0029552
273.0094063
273.0142043
273.0168652
273.0173592
273.0153738
272.9911513
271.4449875
278.2482886
273.0582801
272.989386
272.9848337
272.9842607
272.9840861
272.9822754
272.979816
272.9832408
272.9884246
272.9931689
272.9968799
273.000886
273.0062245
273.0119777
273.016215
273.0168526
273.0140316
272.9898268
271.4009506
278.1978183
273.0533752
272.9889625
272.9844291
272.9831556
272.9840166
272.9839592
272.9806568
272.9815885
272.9864008
272.9930493
272.9973414
273.0000595
273.0045877
273.0103039
273.0144371
273.0150242
273.012585
272.9898341
271.387791
277.9730955
273.0476509
272.9874484
272.9833225
272.9829428
272.9840819
272.9852672
272.9818233
272.9810823
272.9849977
272.9917475
272.9965107
272.999942
273.0050131
273.0098133
273.012369
273.0125313
273.0112501
272.9909852
271.3554433
277.8864885
273.0453288
272.9860181
272.9831049
272.9838598
272.9838701
272.984437
272.9818886
272.9817024
272.9845159
272.9895525
272.9942722
272.9996966
273.0062655
273.010422
273.0109005
273.0105865
273.0106269
272.992893
271.3741679
277.557803
273.0419166
272.9859359
272.9833129
272.9840202
272.9827609
272.9819087
272.9810751
272.9829587
272.9849488
272.9874257
272.9919374
272.9995098
273.0076212
273.0115215
273.0109729
273.0105451
273.0109141
272.9942322
271.3777779
277.4327572
273.0394105
272.9865928
272.9830296
272.9825686
272.980722
272.9791812
272.9799544
272.9837873
272.9851985
272.9867181
272.9919866
273.0003529
273.0083157
273.0119297
273.011984
273.0121475
273.0118325
272.9951622
271.4488254
276.9829576
273.0315624
272.9866689
272.98221
272.9804657
272.9789215
272.9779269
272.9792444
272.9829129
272.9844977
272.9875162
272.9943301
273.0023998
273.0086938
273.0114986
273.0128685
273.0141503
273.0128768
272.9964046
271.5049684
276.8276699
273.0253471
272.985902
272.9814786
272.9792196
272.9780536
272.9783033
272.9786455
272.980448
272.9831835
272.9889295
272.997053
273.0046599
273.0092331
273.0110678
273.0132235
273.0148223
273.0134473
272.9981207
271.6322803
276.2532995
273.0165018
272.9855251
272.980929
272.9790963
272.9783701
272.9793121
272.9781608
272.9785096
272.98272
272.9903786
272.9985481
273.0057619
273.0100713
273.0122364
273.014075
273.0145852
273.0130467
272.999821
271.7303495
276.0921863
273.0136183
272.9857296
272.9808813
272.9788857
272.9787606
272.9799938
272.9780574
272.9788261
272.9844019
272.99228
272.9986654
273.0047606
273.0107182
273.0148505
273.0158252
273.0141668
273.0117787
273.0001949
271.8959268
275.4200437
273.009012
272.9862762
272.9808526
272.9781579
272.9788893
272.9803383
272.9792205
272.9821756
272.9878757
272.9940821
272.9980938
273.0027291
273.0104274
273.0167871
273.0171394
273.0137316
273.010216
273.0003443
272.0267921
275.2738922
273.0075107
272.9872805
272.9820116
272.9789284
272.9796054
272.9810365
272.9821639
272.9867268
272.9909334
272.995266
272.9983699
273.001889
273.0093402
273.0154688
273.0159992
273.0128235
273.0092096
273.0008771
272.2215065
274.510063
273.0017088
272.9887335
272.9848296
272.9827875
272.9822891
272.9827681
272.9863413
272.9908423
272.9921711
272.9951229
272.9993392
273.0034638
273.0078999
273.011097
273.0122236
273.0111653
273.0089392
273.0032779
272.3836508
274.3984628
272.9991581
272.9910984
272.9903178
272.98938
272.9881978
272.9861098
272.9914729
272.9937704
272.992599
272.9943196
273.0005701
273.0058618
273.0068862
273.0058685
273.0071644
273.0085215
273.0083998
273.0054296
272.5917946
273.5547764
273.0582518
272.9969912
273.0915564
273.0056267
273.1019823
273.0052259
273.0825793
273.005264
273.0447831
272.9964872
273.0241645
273.0041031
273.0140918
272.9921785
273.0035148
272.9944594
273.0079269
273.0034867
272.7575899
268.6535458
280.0340944
270.2708629
281.3104447
272.0265721
281.5202933
273.0551138
280.6445418
273.1137088
278.9763582
272.3415891
277.0143732
271.29158
275.2811636
270.4454779
274.2558312
270.2345053
274.1549518
270.682998
274.6963775
279.3492661
273.0923814
272.9927419
272.9884539
272.9932903
272.9900979
272.986865
272.9933273
273.0000035
272.9970047
272.9976174
273.0057792
273.0156911
273.0199807
273.0176629
273.0167459
273.021434
273.0252696
272.9937708
270.5564626
279.344963
273.0817621
272.9886039
272.9836345
272.9847585
272.9836244
272.98337
272.9873517
272.9934734
272.9947128
272.996114
272.9999188
273.007189
273.013476
273.015343
273.0153455
273.0173603
273.0181499
272.986083
270.5417822
279.2889263
273.0735373
272.9907517
272.9859833
272.9838655
272.984763
272.9861301
272.9859097
272.9912553
272.9965747
272.9990499
272.999305
273.0034466
273.0105314
273.0159204
273.0177071
273.0177223
273.0155833
272.9832001
270.4784572
279.2885926
273.0686644
272.9935159
272.9896927
272.9860394
272.9883506
272.989598
272.9852577
272.9881787
272.9947064
272.9997288
272.9998595
273.0016454
273.0072103
273.0134733
273.0166682
273.0162569
273.0131928
272.9823229
270.457446
279.1526758
273.0671312
272.9948641
272.9906023
272.9875232
272.989991
272.9923299
272.9872715
272.9860635
272.9902525
272.9979679
273.0017347
273.0028362
273.0047989
273.009423
273.0131861
273.0138401
273.0118589
272.9836342
270.3592448
279.1245127
273.0716718
272.9936212
272.9885858
272.9872727
272.9892191
272.9938584
272.9910102
272.985902
272.9860162
272.9953923
273.0040216
273.0053408
273.0046085
273.0066912
273.0101333
273.0116736
273.0116621
272.9875214
270.3603812
278.8741318
273.0697484
272.9901091
272.9865919
272.9875714
272.9881231
272.9933238
272.9925439
272.9873476
272.9854624
272.994145
273.0031965
273.0053032
273.0049714
273.0068945
273.0094766
273.0106528
273.0115651
272.990766
270.2803162
278.7941991
273.0646195
272.9875435
272.9868612
272.9888112
272.988021
272.9907105
272.989857
272.9882911
272.9882613
272.9944311
272.9998096
273.001653
273.0045417
273.0091284
273.011481
273.0112467
273.0111112
272.9913238
270.3283308
278.3939533
273.0535008
272.9895609
272.9890041
272.9899752
272.9884235
272.9867307
272.9850669
272.9884029
272.9918219
272.9951985
272.9955574
272.9970595
273.0039089
273.0118804
273.0145588
273.0131317
273.010367
272.9890424
270.312931
278.2662146
273.0485923
272.9936458
272.9905063
272.9887192
272.9879862
272.9841545
272.9821223
272.9884907
272.993564
272.9952842
272.9943355
272.9966793
273.0048458
273.0131387
273.0163375
273.0150202
273.0100734
272.9864788
270.4440996
277.7147007
273.0396097
272.9950681
272.9894779
272.9853713
272.9859072
272.9841332
272.982809
272.9883642
272.9924707
272.994445
272.9960427
273.0010305
273.0071093
273.0118152
273.0149741
273.0155508
273.0110377
272.9880739
270.5292806
277.568157
273.0347267
272.9914935
272.9864549
272.9824064
272.9829829
272.9857407
272.9857684
272.9870477
272.9891244
272.9929191
272.998989
273.0059796
273.0094106
273.0099263
273.0121345
273.0147831
273.0131839
272.9934599
270.7508904
276.8512151
273.0240264
272.9872207
272.9843425
272.9811039
272.9809224
272.9867391
272.9869965
272.985147
272.9862472
272.9928651
273.0010022
273.0078444
273.0101118
273.0101242
273.0112107
273.0138724
273.0149485
272.9999559
270.9225655
276.7031718
273.0205524
272.9863093
272.9845484
272.9814244
272.9804641
272.985569
272.9851891
272.9831179
272.9863444
272.9958422
273.0020754
273.0054944
273.0090519
273.0122822
273.0132028
273.0136384
273.0146052
273.0030976
271.2029585
275.8537202
273.0136582
272.9889116
272.9857522
272.9820655
272.9811348
272.9827075
272.9824292
272.9838075
272.9901293
273.0004204
273.0022957
273.0014648
273.0075077
273.0147297
273.0158749
273.0134174
273.0118378
273.0023463
271.4256495
275.7286264
273.0135841
272.9918243
272.9866096
272.9831114
272.9826467
272.9805882
272.9822553
272.9881041
272.9947693
273.0020111
273.0020358
273.000992
273.0074377
273.0137816
273.0148503
273.0119754
273.0090829
273.0000408
271.728598
274.7635602
273.0073736
272.9928903
272.9866452
272.9857459
272.9851147
272.981009
272.9854837
272.9944447
272.9975235
272.9989048
273.0003925
273.0048645
273.0085687
273.0097105
273.009848
273.0094086
273.0075873
273.0004366
271.9909421
274.688329
273.0049688
272.992902
272.9886388
272.9898613
272.9898833
272.9844314
272.991622
272.9992477
272.9981578
272.9932058
272.9977649
273.0085784
273.0094262
273.0046245
273.0039084
273.0066928
273.007447
273.0022621
272.3096485
273.6270349
273.0823636
272.9979964
273.1160601
273.0040202
273.1274996
273.0049645
273.0965751
273.0100565
273.0502116
272.9921709
273.0141827
273.0047981
273.0095953
272.9900002
272.9915384
272.9921646
273.001483
273.0007288
272.5831266
268.0021373
281.2056392
269.916873
282.6922462
272.0093385
282.7988454
273.2501967
281.4622715
273.3046713
279.1832556
272.3627443
276.6016064
271.1332696
274.4102415
270.1876308
273.1465623
270.0855226
273.1580729
270.8554865
273.988018
282.1668837
273.1520275
272.9918327
272.9886005
273.0020305
273.0015864
272.9940995
272.9961272
273.0039328
273.0080929
273.0089387
273.0071082
273.0105717
273.0166935
273.0204815
273.0197713
273.0209797
273.0219812
272.9800072
269.0730309
282.1795114
273.140351
272.9959128
272.9906459
272.9915934
272.9917362
272.9913302
272.9918888
272.9982659
273.0041211
273.0065675
273.0026493
273.0022644
273.0083819
273.0149718
273.0169002
273.0175038
273.0163846
272.9737079
269.0204012
282.1389769
273.1292783
273.0017469
272.9959782
272.9881187
272.9905689
272.995744
272.9934443
272.9967938
273.0020559
273.0061365
273.0040273
273.0016941
273.0057538
273.0123938
273.0162436
273.017352
273.0153268
272.9735678
268.9157777
282.1691422
273.1204375
273.0015737
272.9964037
272.9884765
272.9936975
273.000509
272.996272
272.9951703
272.9971658
273.0021768
273.0050986
273.0051996
273.0058756
273.0083109
273.0119175
273.0144256
273.013782
272.9750795
268.7990591
282.0621372
273.1215695
272.999838
272.9945525
272.9912407
272.9941837
273.0020792
273.0011878
272.9956697
272.9907011
272.995759
273.0068165
273.0111389
273.0064449
273.002973
273.0061441
273.0107758
273.0122631
272.9784561
268.6449305
282.0691444
273.135331
272.9986907
272.9937156
272.9946018
272.9909906
273.0002476
273.0076884
272.9988774
272.9857872
272.9899792
273.0077881
273.0145732
273.0063719
273.0001517
273.0035375
273.0092397
273.0113248
272.9824993
268.5346672
281.8001617
273.1347544
272.995229
272.9929118
272.9962424
272.9887458
272.9976946
273.0088704
273.0024432
272.9865629
272.984715
273.0065958
273.0121659
273.0045141
273.0008131
273.0062257
273.0104049
273.0103327
272.9850448
268.4351727
281.6817263
273.1214903
272.9919697
272.9934432
272.9959454
272.9904327
272.9962492
273.0031522
273.0020243
272.9921747
272.965362
273.0044586
273.0053409
273.0005799
273.0035586
273.0119917
273.0132129
273.0094485
272.9855623
268.4154522
281.1672888
273.0967727
272.9943747
272.9952306
272.9956973
272.994886
272.9950703
272.9945167
272.9968971
272.9975553
273.000541
273.0008511
272.9971811
272.997054
273.0063923
273.0165258
273.0155803
273.0087984
272.9838662
268.4548739
280.9197658
273.0860898
273.000597
272.996825
272.9947166
272.9972688
272.9941572
272.9892924
272.9924038
272.9991484
273.0035409
272.9996603
272.9963731
272.9987407
273.0081587
273.0168436
273.0157
273.0085987
272.9827484
268.5967588
280.1755448
273.0759364
273.0035526
272.9951746
272.9913438
272.994778
272.9938689
272.9897597
272.9923165
272.9981802
273.0002717
272.9993628
273.0023038
273.0056575
273.0093823
273.0137973
273.0137559
273.0090948
272.9846995
268.821424
279.8779902
273.0738904
272.9974542
272.9912362
272.9874942
272.9881474
272.9936631
272.9950376
272.9959631
272.9951555
272.9943919
272.9994835
273.0088111
273.0118021
273.0097967
273.0099247
273.0115545
273.0107942
272.9896746
269.1392017
278.8740386
273.0576494
272.9884723
272.9888919
272.9855165
272.9819744
272.9918753
272.9985591
272.9982161
272.9912502
272.99118
273.0012948
273.0106668
273.0123868
273.0101919
273.0091272
273.0114353
273.0131065
272.9961243
269.508547
278.5250971
273.0466696
272.9865402
272.9902755
272.9876534
272.97996
272.9877477
272.9968197
272.9954932
272.9885024
272.9944341
273.004875
273.0077772
273.007866
273.0094552
273.0114199
273.0135944
273.0147397
272.9998564
269.9376643
277.322978
273.0282336
272.9921501
272.9933358
272.9909406
272.9822409
272.9825247
272.9905931
272.9902625
272.9897369
273.0028464
273.0084059
273.0033765
273.0028834
273.0090312
273.014881
273.0160652
273.0141317
273.0005598
270.38746
277.0069942
273.0240767
272.998733
272.9937121
272.9916131
272.9864332
272.9808426
272.9854129
272.9883421
272.9948103
273.0073308
273.0081395
273.0028343
273.0028048
273.0083191
273.0144129
273.0150616
273.0115244
272.9980746
270.8456685
275.6497671
273.0148426
273.0007247
272.9900785
272.9892511
272.9902654
272.9847058
272.9848241
272.9915886
273.0013218
273.0056875
273.0028585
273.0047823
273.0071754
273.0087747
273.0101017
273.0102966
273.0077673
272.9971214
271.3426034
275.437911
273.0131495
272.9982572
272.9884769
272.9862113
272.9952939
272.9928864
272.9899069
272.996341
273.0064819
272.9994882
272.9949856
273.0046229
273.0108222
273.0087554
273.0051576
273.0047178
273.0044362
272.9966534
271.8083216
273.9603589
273.1189202
273.0043681
273.1718123
273.0083155
273.1963622
273.0337596
273.1428905
273.0187942
273.0821785
272.999147
273.0138425
272.9958637
273.0084998
272.9935491
272.9875198
272.9877155
272.994677
272.9946757
272.3165465
267.8063606
282.7557551
270.6703108
285.0863136
273.8235783
285.5062685
275.6245362
283.7936174
275.1635621
280.7081856
273.1099996
277.2025941
270.7181887
274.3123916
268.897568
272.767306
268.3962624
273.0834632
269.4547376
274.5274338
284.5567788
273.197124
272.9952781
272.995963
273.0068266
273.0125883
273.012202
273.0051414
273.0033214
273.0161294
273.0216435
273.0117783
273.0077948
273.0114114
273.0200695
273.0251635
273.0218061
273.0162291
272.9582652
266.5492518
284.6051302
273.1957068
273.0073504
273.0056913
272.9998908
273.0003801
273.006112
273.0037319
273.0004801
273.0054307
273.0127996
273.0081275
273.0003665
272.9995758
273.0098628
273.0182776
273.0182755
273.0124176
272.9541271
266.4768989
284.5909991
273.1914081
273.0142884
273.0113846
272.9972281
272.9975472
273.0069357
273.0080156
273.0030089
273.0000404
273.0079839
273.0104599
273.0017522
272.9970694
273.0046418
273.0125608
273.0160464
273.0133193
272.9590469
266.2512577
284.7061696
273.1847228
273.0057877
273.0021237
272.9959353
273.0001415
273.0086848
273.012209
273.0084162
272.9974363
273.0015762
273.0133772
273.0087606
273.0015336
273.0007663
273.0045705
273.0107986
273.0131814
272.9659879
266.0840477
284.6116319
273.187224
272.9980838
272.9937376
273.0004476
273.0012737
273.0057064
273.014748
273.0159902
272.9982891
272.9931224
273.0090137
273.0154228
273.0094218
272.9991009
272.9968
273.0049426
273.0118273
272.9732763
265.7472569
284.6956789
273.2048342
272.9985355
272.9938003
273.0095887
272.999475
272.9974944
273.0138216
273.021996
273.0022428
272.9733033
272.9948505
273.0159609
273.0159343
273.0008531
272.9947035
273.0027112
273.0098628
272.9782739
265.6148413
284.388851
273.2000981
273.0002118
272.9971183
273.0126487
272.9974853
272.9925822
273.0115962
273.0246721
273.0007739
272.4353851
272.986161
273.0119566
273.0140604
273.0017581
272.9984466
273.005136
273.0084376
272.9814146
265.3568282
284.2958432
273.1822487
273.0012496
272.9995873
273.007986
272.9990064
272.9955012
273.0094517
273.0196799
272.9646936
270.4769968
272.9626176
273.0044384
273.0054871
272.9996861
273.0040774
273.0097097
273.0079401
272.983748
265.3961912
283.6386139
273.1445113
273.001816
272.9999812
273.0035745
273.0044313
273.002052
273.0049106
273.0090309
273.0075845
272.8183939
272.9999807
272.9996331
272.9967802
272.9973542
273.0079385
273.013083
273.0083312
272.9863001
265.4010946
283.3664467
273.1305912
273.0039495
272.9996203
273.0028032
273.0074863
273.0051911
273.0008372
272.9979331
273.0022843
273.0076359
273.0039315
272.9988412
272.9956032
272.9987332
273.0094343
273.0133605
273.0088378
272.9882976
265.7042445
282.3852288
273.1161693
273.004451
272.9981966
273.0018255
273.0047433
273.0024931
272.9998947
272.9972407
273.0004548
273.0051451
273.002712
273.0031649
273.0030508
273.0040579
273.0092889
273.0108956
273.008447
272.9898675
266.0295873
282.0528421
273.1226633
272.9993182
272.9953473
272.998742
272.9963548
272.9955667
273.003289
273.007795
273.0016979
272.9954075
272.9986338
273.0095863
273.0124983
273.0102277
273.0096501
273.0088123
273.0075457
272.9906652
266.5841945
280.6789184
273.0990002
272.9915089
272.9932473
272.9959963
272.9881673
272.9884945
273.005901
273.0194453
273.003387
272.9878159
272.997257
273.0121226
273.0162255
273.0126192
273.0106248
273.0096656
273.0082084
272.9929938
267.183829
280.2863147
273.0834164
272.990446
272.9937683
272.9971161
272.9861821
272.9849047
273.0036233
273.0171605
273.0018689
272.9895941
273.0011456
273.0115635
273.0122176
273.0092829
273.0105805
273.0125981
273.0107486
272.9953142
267.9069659
278.5926805
273.0448976
272.9968199
272.9959757
273.0028074
272.9904861
272.9819444
272.996193
273.0041121
272.9981975
273.000772
273.008452
273.0099509
273.0049768
273.0040272
273.0108457
273.0159224
273.0131566
272.9977712
268.6822234
278.2504873
273.0332192
273.0037869
272.9974442
273.0018587
272.9928741
272.9849017
272.9904484
272.9899599
272.9963406
273.0099834
273.0117909
273.0080655
273.0021762
273.003001
273.0111267
273.015893
273.0125387
272.9963471
269.4396759
276.3673595
273.0149027
273.0052831
272.997304
272.9930725
272.9916356
272.9959296
272.9920337
272.9843758
272.9981622
273.0134212
273.0092921
273.005076
273.004176
273.0078151
273.0117904
273.0121326
273.008511
272.9946793
270.2800363
276.2105208
273.0187759
273.003067
273.0016883
272.9813954
272.9932981
273.0096009
273.0009416
272.9866796
273.0026312
273.0111612
273.0031737
272.9994135
273.0060841
273.0133306
273.0115618
273.0064233
273.0031186
272.9919501
271.0192794
274.1828093
273.1901522
273.0110289
273.2912464
273.0018506
273.2894003
273.0573135
273.2062927
273.0145944
273.0870398
273.0103215
273.0128364
272.9835449
272.9847709
272.9915761
272.9780744
272.984576
272.9813005
272.9875943
271.8706201
266.5287448
285.4707054
270.1232469
288.5247455
274.1660096
288.72178
276.5579028
285.8462729
275.9503372
281.2144853
273.4074655
276.2659857
270.337911
272.1701483
268.068587
269.9964942
267.7704788
270.6003681
269.7094217
272.842078
290.0218215
273.3726029
273.0083681
273.0029424
273.0088677
273.0142052
273.0298091
273.0315808
273.0179331
273.0011422
273.0029833
273.0238045
273.0273898
273.0018438
272.9924831
273.0173298
273.0250389
273.0169618
272.9469176
262.6210962
290.1720275
273.3818708
273.021765
273.0201784
273.0091176
273.0049371
273.0200643
273.0255995
273.0121865
272.9951277
272.9971136
273.0155057
273.0144093
272.9958437
272.9940654
273.0093186
273.0145915
273.0076332
272.9413848
262.4178936
290.2836037
273.3891241
273.0248924
273.0256525
273.0123981
273.0067853
273.0121932
273.0180914
273.0143127
273.0051365
273.0019506
273.0033875
273.0006939
272.9993621
273.0048398
273.005173
273.006198
273.0042749
272.9507098
261.9934045
290.5786274
273.3919628
273.0064582
273.007948
273.0145612
273.014519
273.0066065
273.009453
273.0183391
273.0259475
273.0137738
272.9845689
272.9820345
273.0067597
273.0168189
273.0006299
272.9972642
273.0032797
272.9674854
261.4886272
290.6471704
273.3914913
272.992902
272.9918643
273.0229765
273.0250467
272.9979428
272.9956659
273.0240288
273.042811
272.9914951
272.9730978
272.9754359
273.0167907
273.0227758
272.9945007
272.9906715
273.0034708
272.984361
260.8637769
290.8651138
273.4048191
272.9961266
272.9904716
273.0332892
273.0334748
272.9871434
272.9768723
273.0258587
273.0292918
272.0422357
272.966605
272.9777123
273.0226804
273.0230467
272.9901205
272.9890853
273.0038919
272.9980122
260.3514285
290.6043781
273.3966727
273.008036
272.9986029
273.0311596
273.0316515
272.9862214
272.9667928
273.0071489
272.3113242
256.3810584
272.6379743
272.9780307
273.021367
273.0192302
272.9894829
272.9927066
273.0041232
273.0061567
259.9227039
290.5187203
273.3783508
273.0195327
273.0064057
273.0170282
273.0241618
272.9988189
272.9717663
272.9648916
270.6452588
240.5028756
270.8301054
272.9573707
273.0158261
273.0134458
272.9908112
272.9967486
273.0044177
273.0132337
259.7613974
289.7020693
273.3296613
273.018796
273.0067326
273.005232
273.0186208
273.0145578
272.9834381
272.9918136
272.7666467
263.7222907
272.7911752
272.9894128
273.0058964
273.0068222
272.991971
272.9990482
273.0054198
273.0193103
259.8587259
289.2243832
273.3043519
273.0085317
273.003556
273.0040843
273.0158968
273.0212111
272.9914762
272.9834588
273.0037806
272.6152334
273.0120721
272.9892778
272.9990371
273.0053532
272.9951451
273.0001019
273.0064777
273.0246175
260.2606392
287.8075358
273.2642025
272.999452
273.0018079
273.0090725
273.0125366
273.0123523
272.991765
272.9847496
273.0082078
273.0205612
273.0002799
272.9836481
272.9980699
273.0096291
273.0017504
273.0017889
273.0064669
273.0223786
260.9490294
287.1378803
273.2592229
272.9989455
273.0005985
273.0120826
273.0075695
272.994416
272.9874008
272.9986524
273.0204164
273.0173373
272.9905552
272.9836605
273.0021956
273.0147217
273.008936
273.0043988
273.0051334
273.0157073
261.88046
285.0623385
273.2099191
273.0006266
272.9973146
273.0098127
273.0064153
272.9789815
272.9812626
273.0171616
273.0317093
273.007771
272.9853138
272.9923252
273.0109555
273.0165588
273.0125596
273.0076557
273.0044081
273.006503
263.0466624
284.2195839
273.1785937
273.0045688
272.9923628
273.0060167
273.011653
272.9784612
272.9814934
273.028271
273.0323007
272.9966152
272.9866228
273.0074871
273.018804
273.0115464
273.0098583
273.0093979
273.0055114
273.0012467
264.3241986
281.6899657
273.1014397
273.0066456
272.9885404
273.009256
273.0171845
272.9851196
272.9899739
273.025316
273.02008
272.989111
272.9942126
273.0212224
273.0200977
273.0024144
273.0036453
273.009863
273.0078
273.0001251
265.7532863
280.9372319
273.0703266
273.0032017
272.991232
273.0098619
273.0092275
272.9935121
273.0019584
273.010742
272.9990332
272.9876039
273.0030842
273.0245364
273.0145664
272.9986606
273.0013783
273.0088267
273.0087829
273.0000555
267.0535885
278.1647187
273.0266283
272.9968977
273.002747
273.0030387
272.9879277
273.0036758
273.013188
272.9942158
272.9848163
272.9977282
273.0119609
273.0137099
273.0059817
273.0042161
273.0072618
273.0085072
273.007219
272.9988507
268.5380374
277.7804548
273.0361148
272.9974183
273.0263617
272.9901836
272.9763689
273.0137492
273.0259435
272.9835842
272.9830088
273.0166483
273.0202814
272.9967933
272.9948683
273.0132125
273.0166237
273.0084899
273.003735
272.995701
269.7191387
274.8272549
273.3026816
273.0185848
273.5333232
273.0556299
273.4975609
273.1462554
273.3796076
273.0653116
273.1341176
273.0421856
273.0454344
272.9609402
272.9481771
272.9825855
272.9752903
273.0019446
272.978517
272.9995956
271.1937191
266.0799519
288.7425642
271.4804423
293.6781828
277.9301121
294.3730302
281.7748551
290.3987478
279.9538434
283.6699502
274.9987731
276.8344253
269.4501556
271.1289298
265.1229228
268.3301294
263.9028327
269.8559069
266.6654719
273.6757853
295.2172464
273.607055
273.0281219
273.0061335
273.0292633
273.0314888
273.0288075
273.0402275
273.0271663
273.0003317
272.9993951
273.0145303
273.0132974
273.0006232
272.9883481
272.9962038
273.0137811
273.0134306
272.9575642
257.557113
295.5818938
273.6219295
273.0279069
273.0208374
273.0250059
273.0193193
273.014315
273.0316201
273.0379647
273.0083897
272.9898463
273.0031198
273.0112447
272.9991096
272.9874736
272.9928667
273.0000396
273.0004623
272.9538038
257.213396
295.8363991
273.6348109
273.0244858
273.0272149
273.025465
273.0187215
273.0101772
273.0206686
273.0412597
273.024093
272.99467
272.9944339