/*--------------------------------*- C++ -*----------------------------------*\
| =========                 |                                                 |
| \\      /  F ield         | OpenFOAM: The Open Source CFD Toolbox           |
|  \\    /   O peration     | Version:  5.x                                   |
|   \\  /    A nd           | Web:      www.OpenFOAM.org                      |
|    \\/     M anipulation  |                                                 |
\*---------------------------------------------------------------------------*/
FoamFile
{
    version     2.0;
    format      ascii;
    class       surfaceScalarField;
    location    "6.4";
    object      phi;
}
// * * * * * * * * * * * * * * * * * * * * * * * * * * * * * * * * * * * * * //

dimensions      [1 0 -1 0 0 0 0];

internalField   nonuniform List<scalar> 
91025
(
1.651736828
0.003319129757
-0.1339434893
1.344607647
-0.09442147906
0.06860327884
1.194526161
-0.01167733193
-0.1638933845
0.6960053197
-0.1961664124
-0.02109617536
0.2538491872
-0.1871551408
-0.208466181
-0.1441648333
-0.1744849435
0.01778183901
-0.3341437006
-0.1022335501
-0.09034325313
-0.5848759366
-0.202392384
-0.06071737363
-0.9469344104
-0.1723094325
-0.2281424938
-1.243321535
-0.1275748202
-0.1515466739
-1.175422577
-0.05125568999
-0.1650278367
-0.935600473
-0.1288534784
-0.1742876596
-0.702037862
-0.1916276029
-0.2377069727
-0.4505774936
-0.1484593833
-0.1687024308
-0.1546510207
-0.007034285438
-0.1549393628
0.06097948815
0.01087778744
-0.2099742476
0.07512769424
0.1019712576
-0.2152558683
0.1298226258
0.1451876906
-0.1031767818
0.2581965419
0.1871926784
0.06185251895
0.06778427832
0.05702813037
1.64256524
-0.005692224874
-0.1458334562
1.342070129
-0.242318236
0.06262034644
1.153949475
-0.1230633158
-0.1471547702
0.6623065204
-0.4363779508
0.01212656043
0.2651856409
-0.3860383114
-0.2003545492
-0.1415689842
-0.3966590041
0.02010806986
-0.3483644342
-0.1850163948
-0.05536255784
-0.5884800846
-0.3813108372
-0.02771845625
-0.9202329342
-0.3801714894
-0.2183848556
-1.235235355
-0.3295578071
-0.1622804066
-1.209798603
-0.1024995344
-0.1708618856
-0.9731026861
-0.129426485
-0.1539085486
-0.6782230877
-0.1677385307
-0.217644741
-0.3888014024
-0.136080438
-0.1741082687
-0.1097993202
0.05224237198
-0.1680463511
0.1011349403
0.04160846589
-0.2056525629
0.1070997008
0.1615723808
-0.1991103305
0.1282546051
0.1784455137
-0.1038634566
0.2081073007
0.2839174733
0.04188245652
0.1036105113
0.04287870768
1.602300607
-0.02788878933
-0.1597689297
1.314524675
-0.4580734316
0.05242279857
1.093194487
-0.3475593745
-0.1538034375
0.6254255571
-0.7304470004
0.03318705258
0.2966550166
-0.5735897875
-0.1833311532
-0.1100492433
-0.6731072987
0.0236935683
-0.3689237734
-0.2651587556
-0.03972409981
-0.6171290615
-0.5194613617
0.01198156254
-0.8754834903
-0.5668605058
-0.1882059808
-1.167070166
-0.5813443203
-0.1549315563
-1.198618447
-0.1740960411
-0.1890358655
-0.996909115
-0.07278379274
-0.126121679
-0.6592239426
0.01877461664
-0.1857912623
-0.331716819
-0.0009801054118
-0.1696824499
-0.07178268331
0.200888916
-0.1840337583
0.1399708049
0.1338813058
-0.1847253449
0.1501736611
0.2179905925
-0.1686383305
0.1361706645
0.1223547486
-0.1044102859
0.1434077924
0.2726372708
-0.002333800803
0.08933523991
0.01108661478
1.506066407
-0.03292333548
-0.1595094319
1.239559954
-0.6782539006
0.05706556814
1.03595767
-0.6005954298
-0.1641246857
0.6034757689
-1.035649139
0.04044159685
0.3393317437
-0.7246253074
-0.14559395
-0.05320889312
-0.9546312851
0.03072976027
-0.3962041241
-0.4088537074
-0.04983753775
-0.6785174773
-0.6641814303
0.0390947291
-0.8412689719
-0.6631079042
-0.1244995301
-1.037177466
-0.7870951741
-0.1292647588
-1.096197668
-0.302145596
-0.210603876
-0.964584024
-0.1037896035
-0.119040423
-0.6407655535
0.1502393342
-0.1540342638
-0.2910686802
0.107274954
-0.1632916288
-0.05372451853
0.389727937
-0.1951189781
0.1429779801
0.3055847982
-0.1641395201
0.1584909458
0.3297159908
-0.1289299908
0.145011252
0.08540131958
-0.09791568757
0.1003569492
0.2287482671
-0.05330305823
0.04110467566
-0.02560513513
1.341136801
0.002130584885
-0.132925786
1.109590699
-0.8513928632
0.09639772631
0.9819976291
-0.7826422069
-0.1579142946
0.6033961189
-1.298686717
0.06074231862
0.394814148
-0.8299126618
-0.1005802195
0.03710763304
-1.227137546
0.04624197004
-0.3879849768
-0.6936140884
-0.08747539151
-0.7325893924
-0.8949532394
0.06428914306
-0.8130431715
-0.635229349
-0.04669621953
-0.8741516568
-0.8735319139
-0.07044459087
-0.9195767731
-0.4600343402
-0.2370963021
-0.8796763516
-0.3339712867
-0.1163047664
-0.6129786028
0.08194158441
-0.1390678985
-0.260228505
0.08214822489
-0.1492398223
-0.05005706883
0.5275186052
-0.2088257939
0.1058642592
0.4757603368
-0.1576737672
0.1174192795
0.4887337158
-0.1113911198
0.1323635053
0.1032508272
-0.09408639363
0.05425964858
0.188636696
-0.1021058541
-0.04590319482
-0.06462110684
1.134507743
0.0853684032
-0.08164245459
0.9543898058
-0.9417486969
0.1667392959
0.9304320993
-0.8228335903
-0.1089268285
0.6126651951
-1.474243344
0.1057662266
0.416803953
-0.8966104401
-0.04671024735
0.09266218203
-1.459007909
0.07093233622
-0.3494696655
-1.065742194
-0.1071776041
-0.7426048959
-1.234752404
0.07234225763
-0.8191425062
-0.5926382147
0.007038436356
-0.7991931958
-0.8600257996
-0.02659333183
-0.770722342
-0.585881212
-0.2666994915
-0.7456455912
-0.6572183562
-0.1305305308
-0.5055023696
-0.1109125276
-0.1347461908
-0.1554181467
-0.03334058102
-0.1422436634
-0.007484543283
0.5528269325
-0.2266402591
0.05228752135
0.5296797686
-0.1836953144
0.03726065411
0.6027153047
-0.1224656883
0.08230942669
0.1801023058
-0.1012873316
0.01599918426
0.203064372
-0.127273788
-0.1134582603
-0.07804251214
0.9024112422
0.1717702298
-0.0643562606
0.7679130597
-0.964266278
0.2061539721
0.8540499329
-0.7115273004
-0.04558373206
0.6099886053
-1.562641907
0.1668898037
0.4013875082
-0.9457323083
-0.01367775036
0.1062636545
-1.61599829
0.1116218703
-0.2450488809
-1.348682836
-0.08311174199
-0.61104227
-1.606923948
0.09105791486
-0.7781313934
-0.6402075946
0.03011856959
-0.7857432568
-0.8799125876
0.02565112368
-0.6914102569
-0.6130706536
-0.2221467115
-0.6041671522
-0.8809425084
-0.08654254289
-0.3406010469
-0.2281133761
-0.1147613715
-0.001968971203
-0.1435390971
-0.1184593162
0.07373882303
0.4602566777
-0.2337603307
0.001592450748
0.3958813706
-0.2189142398
-0.07268161945
0.6101913156
-0.1565688538
-0.006433227485
0.2644689223
-0.1187771096
-0.02996679507
0.2819552163
-0.1252267571
-0.1317742679
-0.06842044444
0.7016208046
0.2321106353
-0.08382745951
0.5968316004
-0.9538989866
0.1864973347
0.7475572326
-0.5093687458
0.01129805007
0.5711418895
-1.583343852
0.2108963766
0.3385686255
-0.9932708045
0.006744908122
0.0485456051
-1.694011986
0.1534143656
-0.1598613
-1.370767519
0.00849999235
-0.4160020926
-1.86189613
0.1175038091
-0.7039048929
-0.8201600624
0.002788970067
-0.8211081233
-1.004607336
0.04338486205
-0.6626738602
-0.486921398
-0.1740994344
-0.4351511561
-0.8274681504
-0.02437154792
-0.1238875909
-0.1069291403
-0.09421045045
0.1723422204
-0.1586003421
-0.103961924
0.1734541484
0.3382695088
-0.2185967062
-8.23255986e-06
0.1563095206
-0.240728759
-0.1307892371
0.5517834184
-0.1839548422
-0.09364125591
0.3049984568
-0.1350201404
-0.09871550518
0.3750392009
-0.1030526641
-0.1225766572
-0.04124792284
0.5106109983
0.2579066175
-0.1451099996
0.4274422576
-0.9631856449
0.1161856927
0.5915331408
-0.3168530294
0.02507205916
0.4893456155
-1.57796654
0.2236263545
0.273923044
-1.041768951
0.001526513898
-0.01928542739
-1.771305049
0.1827611555
-0.09229505243
-1.165331992
0.1182143706
-0.2092792431
-1.923887474
0.1814684416
-0.5217453772
-1.039416229
-0.002625201258
-0.7517117393
-1.217732091
0.06573745289
-0.621037494
-0.3050884452
-0.008129716892
-0.3138263812
-0.5908461016
0.07515462148
0.01605317708
0.1366903383
-0.05099740667
0.2640998053
-0.1421422201
-0.07797917589
0.225244553
0.2432423603
-0.1732221705
0.04296359989
-0.07281068099
-0.2140350426
-0.1359888094
0.4839172234
-0.1882631458
-0.1663720673
0.2679662671
-0.1453281632
-0.1933822341
0.374860383
-0.08210845626
-0.1200816341
-0.01277416813
0.3710160028
0.2628536024
-0.185229362
0.313209779
-1.005719593
0.05402416995
0.4177935589
-0.2181490489
0.01155263098
0.3757901428
-1.551199874
0.2235824483
0.2276094526
-1.045547298
0.009251003365
-0.06987744944
-1.855727965
0.1914028604
-0.116234028
-0.9326925199
0.2125915387
-0.1239423156
-1.797204571
0.2569429463
-0.3396376745
-1.127677374
-0.002862975378
-0.5862832168
-1.361461496
0.0567521922
-0.5017236813
-0.1226202267
0.04688476134
-0.2014188743
-0.3535600452
0.1182204466
0.09312063984
0.3414002499
-0.03871360203
0.2839432002
-0.14791125
-0.06873246965
0.2601418157
0.2071653311
-0.1190062679
0.1220497169
-0.1580500743
-0.1563932366
-0.09492800746
0.4618926216
-0.1642622322
-0.2204616068
0.1544848415
-0.1456323804
-0.283431582
0.2453805952
-0.0692436504
-0.161573528
0.002145252231
0.1986589161
0.2825363714
-0.1792347257
0.1721306442
-1.084413956
0.03911817779
0.2299207142
-0.2138453171
-0.02127836309
0.2310259899
-1.51289569
0.2203884568
0.2071773723
-0.9518106118
0.02478385111
-0.04014517396
-1.922153876
0.1881617651
-0.1391499332
-0.80520903
0.2368540657
-0.08543527936
-1.629559791
0.3138210875
-0.1317040431
-0.9643580572
0.04346446193
-0.2867099414
-1.393870317
0.06454766913
-0.3063306342
-0.07426389753
0.0821928709
-0.1350692437
-0.2766139068
0.1458821967
0.08226799832
0.4180460377
-0.002737907999
0.2633404936
-0.1823967108
-0.03821356449
0.2874162862
0.2480676394
-0.06283173986
0.1994217038
-0.128329042
-0.0915062983
-0.06936165287
0.4557661331
-0.1353461035
-0.285083407
-0.006506397385
-0.1404200586
-0.3439046562
0.1032002806
-0.05205707583
-0.2280410983
0.005311415001
0.0532485937
0.3287434644
-0.1240387657
0.07138816209
-1.141199523
0.07452330959
0.09330645531
-0.2129867151
-0.02747473564
0.1042418088
-1.458305467
0.2328161205
0.1850414536
-0.7195152429
0.08187820155
0.01530246739
-1.871494382
0.202131138
-0.1443250154
-0.7395527666
0.2138440287
-0.1044216487
-1.458057882
0.3249892614
-0.005823602383
-0.6587639632
0.1147957365
-0.02608608331
-1.322138829
0.08489858808
-0.1002960984
-0.1514393481
0.05431024594
-0.07199921676
-0.3663984281
0.1364098406
0.05604033349
0.4241900178
0.05196692163
0.2477422498
-0.1736272534
0.004706826821
0.3432971333
0.3292808323
-0.01990636564
0.2440594772
-0.08213469542
-0.05649273549
-0.1082025232
0.3876622616
-0.1223440362
-0.388543473
-0.1717819377
-0.1183497162
-0.3590533529
0.0480378012
-0.01774700207
-0.2570265817
0.01721744405
-0.1477813095
0.4136863346
-0.06013624812
-0.06119340256
-1.109317548
0.1328211291
-0.02538554916
-0.1190695724
-0.02376503659
-0.01920047795
-1.365359722
0.2203154836
0.1230068237
-0.3686883867
0.1303413414
0.06905532856
-1.63725687
0.2237000902
-0.06370671213
-0.5872936556
0.1507497262
-0.06783287911
-1.275122145
0.2832517164
0.08501685695
-0.3403151991
0.171229175
0.1768113893
-1.201106289
0.1260715018
0.1081831142
-0.2258001485
0.03645248056
0.03165809965
-0.5033183241
0.121011573
0.06108525958
0.4537458086
0.09657096286
0.2587028953
-0.08391200531
0.06066176331
0.3836945604
0.3956230877
0.0006204454782
0.2436910792
-0.1580380207
-0.06690790633
-0.1793467853
0.2077838325
-0.1340118798
-0.4579391022
-0.276037982
-0.09159907493
-0.3371086588
0.160309726
0.0368198768
-0.1822204839
0.04257074584
-0.2812182718
0.5377579979
-0.01872825983
-0.1395129934
-0.9393100134
0.1758569037
-0.06030639305
0.09208585266
0.006889952607
-0.06746542373
-1.226809416
0.2012637368
0.06100100245
-0.02036861473
0.1812285314
0.08609074287
-1.267592404
0.2644190071
0.01542765589
-0.2614746023
0.1304552733
-0.02977381957
-1.056100806
0.2314348167
0.079416082
-0.06552767513
0.2075784325
0.2454290413
-1.016195395
0.1721957519
0.2786075315
-0.1928932474
0.05179220291
0.1594269977
-0.5791274195
0.0918106852
0.1057227995
0.4696928172
0.1139030792
0.2445536898
-0.01709812303
0.09338091316
0.3481539741
0.3963471792
0.01336402827
0.195119425
-0.3590538038
-0.08250542714
-0.2232998755
-0.0005420911848
-0.1339028135
-0.4651956497
-0.304771389
-0.05802332355
-0.3192388676
0.4064518494
0.08268626733
-0.05738846609
0.0670815376
-0.4223410207
0.6852030213
-0.01223772711
-0.2652961037
-0.6916597404
0.1622067179
-0.1263534485
0.4054882413
0.01801145735
-0.09656136829
-1.034555266
0.1487090039
-0.003360203795
0.2731218828
0.1624295063
0.07318183555
-0.8919796162
0.2721455403
0.08354945274
0.1903789915
0.116239347
0.01275398946
-0.7511818542
0.1694533943
0.07798458229
0.2421054004
0.1868876017
0.2892625128
-0.7066561867
0.196520949
0.4403106508
0.02317431324
0.07060631173
0.3542661709
-0.5633580768
0.04931894233
0.1862917104
0.4204282517
0.06730631609
0.1855432525
-0.08124300405
0.08989635097
0.2473663113
0.3127889922
0.02891133636
0.1535661463
-0.5444225431
-0.07308520141
-0.1597763631
-0.1253224586
-0.1080339719
-0.3640528561
-0.2715050363
-0.03643895159
-0.3132506714
0.6295438846
0.08817262046
0.04391782833
0.06272500144
-0.4076931426
0.8273463893
-0.01634122739
-0.3083638213
-0.4493931434
0.1219296928
-0.1579607597
0.7647937405
0.03227583496
-0.07484527097
-0.7625762464
0.1513532891
0.01560689213
0.5298583711
0.1626289442
0.08095688063
-0.5850240965
0.2622295701
0.09990628149
0.6382239046
0.1389539898
0.01892563504
-0.4212618127
0.1429731953
0.0401001
0.6002923413
0.1638871409
0.2605298878
-0.3229203258
0.2174255706
0.4921951118
0.3274509372
0.1173579982
0.4713074594
-0.5124827659
0.02977041699
0.2279186654
0.2716394297
0.0153501652
0.08746100929
-0.2966679508
0.06011915147
0.09240331666
0.1742151468
0.05945015417
0.1207768673
-0.6112262111
-0.01346616462
-0.01696898971
-0.1192782365
-0.05513628157
-0.2106890661
-0.2532003312
-0.03438564017
-0.3697281771
0.6328602283
0.01904681598
0.02380800969
0.01901039489
-0.4106847457
0.9184340027
-0.01805392474
-0.3999102463
-0.3223805188
0.05971879684
-0.2673260609
1.085566322
0.01451517956
-0.1017237895
-0.3864594563
0.1584062134
0.05765478393
0.8614173746
0.1390886038
0.1049196173
-0.3055929498
0.181192829
0.1065727582
0.9790249157
0.0997373963
0.0349721176
-0.1080175047
0.09075803018
0.03646809091
0.9350114442
0.09749886857
0.2267022123
0.03066969321
0.1895554988
0.4808212185
0.6654452741
0.1358993952
0.5129530505
-0.4093314948
0.01323304194
0.2730353249
0.1364880375
-0.04412966716
0.04873374296
-0.5399701857
0.0144496447
0.02862935199
0.06655923774
0.07454056818
0.1531744595
-0.5731289227
0.04868648944
0.1596764551
-0.06728549518
-0.009577591754
-0.05213753965
-0.380607765
-0.06647321889
-0.4136377567
0.3460054281
-0.08491187971
-0.1556502006
-0.05237288473
-0.2682353381
0.9319896889
-0.007816819876
-0.3263738747
-0.3556264526
0.02768670135
-0.2657763596
1.300986057
0.01709039156
-0.1105215008
-0.02280946778
0.1918221119
0.09649154534
1.293088731
0.1603446302
0.1789157177
0.03758999045
0.156763296
0.1301578195
1.193729555
0.07947472476
0.03744733083
0.07521330289
0.06244658903
0.00595462151
1.113348176
0.07109061189
0.1127502066
0.184111849
0.1639178184
0.3232385203
0.8952595459
0.1605769707
0.3961325663
-0.2711555861
0.0330216171
0.2252055342
0.1120389247
-0.0515518416
0.02369525126
-0.6579412602
-0.0002008596659
0.001681504519
0.01086776727
0.08099677539
0.1528920908
-0.5278675315
0.08796984698
0.238646307
-0.07175904203
0.01634187134
0.02187589731
-0.6642985993
-0.09141347341
-0.4392992666
-0.1399468399
-0.1712655322
-0.4230638442
-0.102120728
-0.2052151079
0.8732808205
0.00205048569
-0.2876939358
-0.4590054777
-0.007237299197
-0.2648365225
1.398488672
-4.722975334e-06
-0.1408727321
0.3163300393
0.1645090098
0.06700660938
1.746969404
0.1217321141
0.1896648491
0.4251785877
0.07237528416
0.1443437774
1.34643086
0.005889665872
0.04805585825
0.1055297022
-0.001803491382
0.006894115353
1.109634908
0.01699791608
0.03967210464
0.1602675308
0.09827561366
0.1718586045
1.009843903
0.1107749088
0.2576123268
-0.07403891407
0.03743716096
0.188973617
0.2570076627
-0.04232997482
0.05665754522
-0.6057691958
-0.02223205227
0.03034933449
0.0116660654
0.05073216323
0.147977445
-0.5079882082
0.07510551069
0.2167064989
-0.1376054484
0.01109535148
0.05062407923
-0.9491115467
-0.08621568451
-0.3202590054
-0.5843264342
-0.1638084803
-0.6569538186
-0.1050628186
-0.01201848482
0.009003588202
-0.07673477579
0.0007002933296
-0.09614325981
0.001909974383
-0.0312062522
0.08336970064
0.07541900589
0.07361485405
0.0833392911
0.03482099087
0.04451331785
0.003487948102
0.01544208871
0.01394913117
-0.02269535842
0.01711097626
-0.01678828355
0.051335497
0.02478918964
0.06007841327
0.06576245981
0.02353809027
0.06447756068
-0.007192933384
0.0192427945
-0.01071256344
0.002484729704
0.02075342739
0.04789161135
0.03750688814
0.08602667044
0.008992118132
0.01114934039
-0.03957238531
-0.1527562566
-0.08234334158
-0.04563814553
1.612278926
-0.05636158707
-0.3209434352
1.282204204
-0.1570967834
0.1133802565
1.122872742
0.03357475147
-0.2388401273
0.7316523129
-0.09687721088
0.0718148635
0.3648795076
-0.1617904656
-0.329805785
-0.142023672
-0.1859087162
0.001343147117
-0.4612606454
-0.02220190121
-0.1641459525
-0.7146256232
-0.08740657576
-0.0264713835
-0.9691664106
-0.1490746488
-0.3547153819
-1.249579108
-0.1585882966
-0.3391306654
-1.240215614
-0.06443564427
-0.3223820616
-0.9643502763
-0.04159900407
-0.2265653211
-0.6367039686
-0.1231034099
-0.3640910472
-0.4208599226
-0.1692830635
-0.401096865
-0.2296211008
-0.05284413105
-0.3539433065
0.09927104406
0.06886564904
-0.3270402164
0.317908366
0.1773568018
-0.3182540304
0.3835958594
0.126150422
-0.2704277793
0.2429842544
0.06907626143
-0.07762361184
-0.007873839413
0.002370354651
1.59382516
-0.07821076631
-0.2911167883
1.318171945
-0.319647072
0.1592720126
1.111481097
-0.09803391131
-0.217244433
0.6829017442
-0.316940977
0.1265945292
0.3716932518
-0.3183314123
-0.3226717915
-0.1076142093
-0.4293039778
-0.002858599593
-0.4723599184
-0.121964196
-0.1116006318
-0.7449386152
-0.2020630316
0.01634519851
-0.9656429721
-0.2820651677
-0.3348361896
-1.225490066
-0.3347652053
-0.3265111903
-1.246501955
-0.1413990914
-0.318961873
-0.9976482936
-0.01353458161
-0.2138723345
-0.6438892047
-0.06308072482
-0.336250521
-0.3746445434
-0.1646142162
-0.379192513
-0.1584458568
-0.005701322083
-0.3549330223
0.1442102128
0.1555918145
-0.3441787848
0.3203221371
0.3094103448
-0.3358548441
0.3515833813
0.158968211
-0.2826497172
0.2105258389
0.06699816715
-0.09691874839
-0.03825630099
-0.009757480365
1.530512868
-0.03057978777
-0.268758339
1.309115594
-0.4489077452
0.1909658677
1.085119242
-0.3345418458
-0.2307393561
0.6356380265
-0.6278904151
0.1422859408
0.3787055962
-0.4474883675
-0.2917967684
-0.049277353
-0.7006255766
0.02552272535
-0.466488019
-0.2891022836
-0.08874250369
-0.7844069168
-0.3479540199
0.04977677119
-0.9640279529
-0.3647946402
-0.2968951606
-1.16305974
-0.5065087932
-0.2695402243
-1.187220579
-0.2418479229
-0.3474597796
-1.009515006
0.02221010914
-0.2101944868
-0.664452304
0.1050193367
-0.3071948399
-0.330038011
-0.01799989151
-0.325154349
-0.0684112012
0.142369955
-0.3582451939
0.1974560849
0.2640129452
-0.3655888588
0.2947241914
0.3870030284
-0.343829707
0.2913729142
0.1170060482
-0.280502243
0.1738998876
0.01735118424
-0.1261297318
-0.09159694327
-0.03284976419
1.436734438
0.07561242328
-0.2573867576
1.233442724
-0.5133708188
0.2078288883
1.054797894
-0.5228142341
-0.2638238041
0.6194965826
-0.8982385256
0.1239799723
0.3885163285
-0.5548558449
-0.2129045653
0.01641683622
-0.9492322139
0.1004140434
-0.4292118296
-0.5082017399
-0.09188163082
-0.8124645068
-0.5390970964
0.04610713075
-0.9751989087
-0.4093048352
-0.1902471604
-1.083368332
-0.6353067516
-0.1710173237
-1.067736023
-0.3957988355
-0.3626349654
-0.9682174101
-0.04586376482
-0.2565044388
-0.6880227144
0.2088322765
-0.2983479379
-0.3078537692
0.1147769482
-0.2902215221
-0.007357920204
0.3132871859
-0.3535867057
0.2157000198
0.352124561
-0.3802928821
0.2301152627
0.4289191979
-0.3316608254
0.208756244
0.07121822719
-0.2579692432
0.1556812006
0.005144635257
-0.14617069
-0.1297580471
-0.05489105466
1.309259287
0.1712482434
-0.2335046381
1.093273443
-0.6012351078
0.2482546356
0.9993976183
-0.5973600066
-0.2709275392
0.6191141638
-1.102672369
0.1304441744
0.3866005004
-0.6454995073
-0.1316421633
0.0727707431
-1.143072402
0.1958544549
-0.365184696
-0.7513348178
-0.155270916
-0.8100760284
-0.8210371835
0.03636431264
-1.009977785
-0.4345299861
-0.09233657487
-1.010156202
-0.6775950168
-0.03259674204
-0.8890608892
-0.4886759809
-0.4348570223
-0.8493337607
-0.2573627857
-0.2934770403
-0.6645772593
0.1515945167
-0.3226800309
-0.2764338013
0.1318223249
-0.2476238538
0.03468031768
0.4494367474
-0.3643638812
0.1952348542
0.3887056948
-0.3981107617
0.1330326335
0.4574187447
-0.3290245916
0.1271389187
0.07242270945
-0.2358824064
0.1437024875
0.07670786954
-0.1644803814
-0.1263134959
-0.08163697051
1.178779118
0.1716685532
-0.1859956357
0.935165771
-0.7810730749
0.3071876816
0.9342128611
-0.5838968913
-0.208896673
0.6211272633
-1.262357809
0.179124288
0.3742040278
-0.7533359253
-0.04071808996
0.1041314044
-1.287158273
0.2729708112
-0.2837386734
-0.9660877075
-0.184431902
-0.7423255626
-1.177840489
0.02016611014
-1.029147583
-0.5149248457
0.0003932094842
-0.9801207985
-0.6599167015
0.07169662657
-0.7593890444
-0.4566484579
-0.4770001316
-0.6987035574
-0.484130879
-0.3425093326
-0.5852750306
-0.0064596358
-0.3397482095
-0.212164352
0.06880857144
-0.2374508373
0.06822643661
0.5161012392
-0.3779502515
0.1529304359
0.3615759846
-0.4328209019
0.04334040535
0.4649227345
-0.3417789677
0.05659267292
0.1272849783
-0.2275695736
0.1265994264
0.23221624
-0.1816540123
-0.07440568987
-0.09447660238
0.99982228
0.1005796529
-0.1863712509
0.7731442288
-1.028321176
0.3334498934
0.8420415114
-0.5260417951
-0.1154968436
0.5914219375
-1.419907432
0.2761400903
0.3424028167
-0.873482429
-0.001288912304
0.08958473519
-1.404333247
0.3333810966
-0.2082474118
-1.035783656
-0.1379566252
-0.6019998099
-1.496373458
0.05735708319
-0.9572036566
-0.6702640618
-0.003281951206
-0.9539274449
-0.6996302429
0.1358405821
-0.6721209208
-0.2627681865
-0.4971352775
-0.5654487306
-0.5969314657
-0.2585272291
-0.4340432105
-0.0918336315
-0.3387064817
-0.09932899889
-0.004164535169
-0.205137044
0.09884940803
0.5486576314
-0.3922154137
0.1132059035
0.2940386643
-0.4544980607
-0.01947654044
0.4728852354
-0.3694761937
0.005604786407
0.199418235
-0.2422274675
0.08089077441
0.4032801691
-0.1885430181
-0.02378510823
-0.08641372584
0.8112971617
0.04860182667
-0.2111171146
0.6683867232
-1.209254127
0.3053995254
0.7536487734
-0.4584783472
-0.008728541002
0.5464637569
-1.540422297
0.3722576548
0.3226841807
-0.9877530871
0.02952327389
0.0542340457
-1.533593764
0.3615555574
-0.1722062751
-0.9687133465
0.03527132508
-0.4550780497
-1.669313741
0.1590839473
-0.7982904176
-0.8798895859
-0.03448959636
-0.9123953495
-0.9069953856
0.1230932281
-0.6754898394
-0.05291970307
-0.4678157907
-0.482751067
-0.5314483661
-0.1587935851
-0.2604683723
0.0004848650733
-0.289901525
0.03024007385
-0.03506045627
-0.2060363165
0.1290427752
0.5502541697
-0.3851402242
0.08301589904
0.2235452169
-0.4636089695
-0.03692083023
0.4981515254
-0.382751119
-0.02633377061
0.2365161892
-0.2640213198
0.004114447151
0.4813535683
-0.183122608
-0.01426342588
-0.06432688138
0.5770852617
0.09662806871
-0.2739680974
0.5843330384
-1.234162083
0.2523548749
0.6349996055
-0.3799313659
0.01799423238
0.4682193324
-1.58655097
0.423231103
0.3153852835
-1.02721267
0.0145082855
0.03537681178
-1.702565234
0.3602910235
-0.1780022482
-0.8501246733
0.2078036621
-0.3522925664
-1.673259619
0.3233119474
-0.5570243258
-1.02419045
-0.0260252121
-0.7266579655
-1.180260894
0.127502217
-0.6443064027
0.02466661708
-0.2081973576
-0.4399298549
-0.4201205808
0.05091282871
-0.1160103277
0.2092342344
-0.1812091554
0.1452974524
-0.05496551744
-0.1716103842
0.1515968279
0.5390654436
-0.3517456294
0.07883446143
0.1652820398
-0.4164104281
-0.03445223478
0.5452588761
-0.3666423421
-0.05138621859
0.212771805
-0.2702712444
-0.08837142819
0.4364974078
-0.1742796055
-0.06212937806
-0.03992263428
0.3785281772
0.2582437432
-0.2852257132
0.5097670149
-1.11047138
0.2189939538
0.525777586
-0.317162693
0.003471297271
0.3818468395
-1.54892779
0.4264781463
0.325727356
-0.9636072514
0.04181168038
0.06233469017
-1.845486074
0.342180708
-0.2095117446
-0.807120701
0.3295630987
-0.3273284415
-1.611805578
0.4567110874
-0.3661129418
-0.9802746353
0.03331279403
-0.4814729149
-1.356171826
0.08682683335
-0.543037901
-0.01853456468
-0.08846634523
-0.3835017209
-0.3143391797
0.1229837028
-0.03935752381
0.4427585759
-0.1040784651
0.213681578
-0.06494467575
-0.1657721137
0.1783522437
0.4883892249
-0.3003935606
0.08245004081
0.1002465597
-0.3474369498
-0.0391614463
0.5673850235
-0.3178793301
-0.09696008827
0.1421382669
-0.2566509627
-0.173457281
0.3300931529
-0.154136185
-0.1380015852
-0.02383372831
0.1800950323
0.4510433382
-0.243497241
0.3604781771
-0.9658106106
0.2289438577
0.3725696142
-0.2586891018
-0.06089090076
0.2530947067
-1.499454546
0.4016314698
0.3016721811
-0.7770511568
0.07930592143
0.1207974464
-1.898304308
0.3334921075
-0.2084868595
-0.8696079672
0.3164478596
-0.325181177
-1.581370883
0.5260206402
-0.2038853846
-0.7210230742
0.1404092454
-0.2092085759
-1.367083909
0.1163161693
-0.3174360214
-0.1259850005
-0.04181943561
-0.2899590169
-0.3217742174
0.1678045506
-0.003899994118
0.6065580483
-0.0216795164
0.2473481454
-0.05671466385
-0.1064421239
0.2207879041
0.4251415376
-0.2357983559
0.1011185253
-0.001625039772
-0.2644745075
-0.06540859537
0.5292028724
-0.2695792176
-0.1613268928
0.04314139537
-0.2288600754
-0.234185991
0.2707722089
-0.1203622947
-0.1821048537
-0.01406138335
0.06063159088
0.5764718078
-0.1583930422
0.2110806553
-0.8983900541
0.282836659
0.2552915372
-0.1830400154
-0.06382472971
0.1564167818
-1.48417856
0.3935248682
0.244669013
-0.5203329422
0.1893045099
0.1548909697
-1.792901302
0.3787948043
-0.1555241975
-0.9039067194
0.2669973476
-0.2911609791
-1.561843527
0.5145408216
-0.122956253
-0.4251688027
0.2854014713
-0.01508551878
-1.244602713
0.1751726624
-0.1028247451
-0.2339126825
-0.02254743308
-0.1765346879
-0.4629389448
0.1434931026
-0.01725622767
0.6524216916
0.07906498111
0.2195948901
-0.01897339166
-0.02684415136
0.2458732867
0.3903935972
-0.1527111295
0.1176181818
-0.1320476219
-0.2057492182
-0.1032659151
0.3995895817
-0.2382042654
-0.2458586834
-0.05739219686
-0.1885015647
-0.2852160569
0.2934734468
-0.07115152061
-0.1639294623
0.003697018192
-0.1049235813
0.6075984179
-0.09959330577
0.01786824465
-0.913798259
0.3233571042
0.1057176195
-0.05653704238
-0.04618334445
0.05912411048
-1.483730473
0.3570812702
0.1441032475
-0.2383860286
0.2640951124
0.1217882029
-1.534218485
0.4293928942
-0.05308753235
-0.7262445601
0.1815670217
-0.1677100923
-1.467282856
0.4266677994
-0.05773274996
-0.194435001
0.3615661965
0.1080876602
-1.092798316
0.2679525945
0.1310427569
-0.2445668672
-0.006673219935
0.01537911085
-0.6480133936
0.1184506009
0.01423835353
0.5819138755
0.1284712037
0.1767985839
0.02605207389
0.06928629259
0.2455594167
0.4310944371
-0.08080406717
0.1445951409
-0.2777208733
-0.182591082
-0.1037045943
0.2272323901
-0.2309157219
-0.271069453
-0.1469201039
-0.1548028582
-0.3101828372
0.3756676154
-0.01503660171
-0.1207111995
0.02697076034
-0.1873193667
0.6138283429
-0.07313395053
-0.1122511045
-0.9138188562
0.320908301
0.03759163942
0.1339629135
0.03312900514
0.06168183753
-1.381187642
0.3494252039
0.08720157163
0.007368128472
0.3111459157
0.0680023717
-1.230774101
0.4897593001
0.02979205924
-0.3352875069
0.2054127265
-0.04345329177
-1.268568341
0.3570114753
-0.03791554213
-0.04424140953
0.3962824307
0.130948779
-0.9199660663
0.3569808645
0.2788443184
-0.1393002634
0.08018975313
0.2039301231
-0.7586746157
0.08930345333
0.06179388982
0.4116443156
0.1317278605
0.09449514575
-0.003754145064
0.1208299152
0.1636484769
0.4657289732
-0.005585141953
0.1276427926
-0.3695332951
-0.1506968869
-0.07248855406
0.1115957298
-0.2080728781
-0.2531608664
-0.225908227
-0.1203786072
-0.3439890936
0.4102911413
0.02442753139
-0.1180695864
0.0490678945
-0.3261064744
0.6733019492
-0.08416775439
-0.2702656125
-0.8307842783
0.2481032276
-0.07266339783
0.4082957469
0.06590343436
0.04492237997
-1.112496216
0.3045037612
0.04861944884
0.235731353
0.2362759621
0.01509448526
-0.9825704314
0.4479484159
0.06190843969
0.1222500046
0.2245665288
0.04639467092
-0.9620006444
0.2848321496
0.004107571599
0.1522465912
0.319193866
0.1507559022
-0.6625624511
0.3730488585
0.3878380088
0.1352469893
0.1523468878
0.4066895801
-0.7339826878
0.06412323274
0.2010920859
0.2241082087
0.039976772
0.06172709896
-0.184868409
0.08336728565
0.06482041837
0.4324721452
0.02859244663
0.108218077
-0.3688945759
-0.09565627853
0.004055384446
0.09263972207
-0.1589189342
-0.1777115487
-0.3002288156
-0.1035599384
-0.3544972397
0.3409960568
0.02287713553
-0.1830450715
0.04417959253
-0.3392486428
0.7990550163
-0.07705941735
-0.2883502408
-0.6641279021
0.1691834991
-0.08998940718
0.7412574524
0.100861473
0.07053442254
-0.721620094
0.3446675159
0.07563297635
0.5014920086
0.2287883288
0.008648285431
-0.7878183351
0.393240055
0.04884164141
0.5138534186
0.2962726189
0.07332018892
-0.6434082874
0.2886487661
0.03026358459
0.4379785583
0.2563208606
0.1255897329
-0.354671077
0.359291504
0.3495632004
0.4649977966
0.2661879501
0.4702764516
-0.6017990397
0.08008647369
0.2904425966
0.06168968186
-0.02908649109
0.04481734611
-0.4811482848
0.01591525564
-0.02906702389
0.2904299451
0.06254846293
0.05203593993
-0.3621873225
0.002283024483
0.03795766105
0.1063808136
-0.08199947496
-0.128807413
-0.3947543632
-0.1024758938
-0.3690898731
0.182468686
-0.04232800755
-0.294900064
0.003870328027
-0.3911433856
0.9187880639
-0.05119229774
-0.3456880263
-0.501901885
0.07121291732
-0.1636338621
1.069545922
0.05099041392
0.002729458362
-0.323516415
0.3508923852
0.05617010583
0.8470898144
0.1949176658
0.02493848842
-0.5431608657
0.2552444083
0.05484892853
0.80748064
0.2242510199
0.1031019087
-0.3282481812
0.2218040106
0.09781306427