/*--------------------------------*- C++ -*----------------------------------*\
| =========                 |                                                 |
| \\      /  F ield         | OpenFOAM: The Open Source CFD Toolbox           |
|  \\    /   O peration     | Version:  5.x                                   |
|   \\  /    A nd           | Web:      www.OpenFOAM.org                      |
|    \\/     M anipulation  |                                                 |
\*---------------------------------------------------------------------------*/
FoamFile
{
    version     2.0;
    format      ascii;
    class       volScalarField;
    location    "6.4";
    object      rho;
}
// * * * * * * * * * * * * * * * * * * * * * * * * * * * * * * * * * * * * * //

dimensions      [1 -3 0 0 0 0 0];

internalField   nonuniform List<scalar> 
30538
(
1.271783318
1.289218351
1.289314003
1.289168148
1.289061551
1.288974407
1.289060406
1.289113776
1.289164398
1.289220444
1.289375216
1.289531292
1.289645214
1.289682424
1.289714662
1.289739642
1.289784911
1.289844076
1.289948143
1.295137078
1.271797844
1.28924299
1.289317092
1.289170135
1.289090485
1.289003327
1.289068149
1.28912753
1.289199289
1.289251674
1.289383216
1.289533098
1.28967519
1.289742356
1.289780717
1.289796528
1.289815093
1.289832623
1.289907861
1.295115329
1.271953641
1.289250359
1.289302519
1.289155282
1.289108585
1.289029909
1.289062231
1.2891214
1.289217327
1.289269795
1.289369563
1.289506396
1.289677139
1.289781911
1.289829231
1.289830186
1.289821454
1.289807395
1.289858669
1.295152714
1.271978529
1.289252927
1.289306625
1.289161542
1.289136463
1.289077921
1.289080173
1.289122877
1.28922904
1.289290477
1.289373168
1.289491577
1.289668633
1.289792917
1.289842508
1.289830694
1.289814465
1.28980722
1.289865667
1.295131675
1.272380367
1.289252282
1.289325962
1.289186472
1.289166868
1.289135212
1.289126821
1.289138991
1.289232758
1.289313911
1.289401827
1.289496247
1.289650137
1.2897717
1.289819045
1.289799484
1.289795324
1.289826476
1.289920275
1.295292564
1.27252645
1.289248634
1.289354304
1.289222274
1.289194652
1.289182255
1.289189046
1.289170882
1.289236093
1.289336323
1.289447316
1.289518679
1.289628084
1.289731357
1.289778738
1.289765004
1.28977477
1.289831492
1.28994778
1.295254232
1.273253133
1.289273073
1.289384642
1.28926011
1.289224017
1.289213753
1.289242361
1.289213605
1.289253491
1.289359055
1.289485279
1.289540602
1.289605613
1.289682876
1.289746498
1.289757433
1.289767242
1.289798287
1.289886202
1.295382572
1.273537554
1.289323214
1.289413741
1.289297535
1.289262651
1.289236577
1.28927316
1.289256011
1.289289991
1.289382292
1.289504423
1.289554738
1.289583269
1.289633178
1.289720747
1.289769986
1.289770856
1.289734253
1.28974674
1.295224634
1.274622772
1.289403229
1.289441937
1.289336064
1.289318145
1.28927141
1.289286819
1.289293848
1.289345619
1.289413984
1.289510362
1.289559158
1.289570908
1.289592462
1.289686676
1.289770495
1.289768864
1.289672733
1.289617579
1.29523287
1.275043694
1.289471651
1.289468167
1.289373538
1.289384288
1.289330593
1.289306587
1.289323701
1.289399091
1.289445932
1.289508877
1.289559092
1.28957921
1.289570625
1.28963171
1.289716609
1.289733361
1.289640298
1.289580709
1.294962759
1.276457423
1.289526129
1.289497768
1.289410068
1.289448593
1.289407781
1.28935685
1.289361035
1.289439067
1.289465563
1.289499154
1.289552867
1.289597259
1.289569629
1.289564383
1.289609258
1.289657342
1.289636031
1.28964677
1.294861996
1.276951375
1.289548581
1.28954105
1.289454036
1.289496469
1.28947975
1.289441845
1.289424093
1.289462684
1.289466862
1.289482423
1.289536474
1.289604784
1.289584417
1.289510935
1.289488353
1.289556678
1.289641575
1.289755453
1.294512856
1.278725351
1.289570979
1.289597754
1.289515997
1.289526688
1.289529228
1.289539126
1.289508726
1.28949014
1.289461669
1.289473042
1.289516452
1.289591311
1.289593682
1.289494039
1.28941253
1.289477499
1.289632927
1.289823538
1.294251654
1.279299333
1.28959475
1.289663111
1.289594541
1.289549385
1.28954978
1.289611831
1.289589211
1.289526429
1.289472703
1.289477593
1.289500788
1.289550213
1.289570529
1.28950481
1.289419399
1.289463339
1.289613583
1.289814405
1.293725324
1.281413426
1.289644736
1.289720389
1.289672256
1.289581219
1.289559856
1.289643712
1.289639277
1.289571522
1.28951315
1.289510384
1.289501609
1.289500452
1.289520936
1.289519644
1.289493289
1.289514924
1.289601423
1.289746569
1.29322981
1.282027836
1.289693733
1.289752396
1.289715963
1.289634628
1.289594482
1.28964569
1.289649215
1.289608589
1.289571431
1.289561138
1.289525045
1.289473538
1.289475272
1.289533378
1.289580658
1.289600641
1.289617403
1.289682894
1.292574878
1.284424738
1.289743774
1.289757032
1.289720917
1.289695642
1.289662845
1.289652883
1.289638934
1.289633188
1.28962356
1.289612299
1.289567289
1.289491949
1.289473987
1.289555355
1.289651153
1.289680142
1.289655638
1.289657148
1.291922838
1.285009213
1.289767919
1.289744382
1.289708204
1.289746778
1.289732448
1.28968399
1.289649842
1.289654175
1.289658251
1.289654993
1.289614844
1.289549815
1.289523631
1.289595298
1.289701108
1.289731988
1.289697811
1.28966893
1.291262864
1.287666099
1.289615568
1.289730042
1.289419554
1.289734949
1.28948412
1.289680552
1.289436643
1.289649704
1.289543541
1.289682539
1.289606972
1.289641263
1.28959634
1.289687251
1.289728883
1.289789845
1.289731738
1.289724678
1.290584105
1.305108565
1.265846654
1.299336413
1.261689284
1.293420299
1.261079267
1.289964332
1.264090232
1.289568137
1.269781773
1.291944941
1.276711744
1.295556567
1.282889312
1.29830533
1.286513652
1.298823077
1.286876105
1.29703109
1.284914673
1.26816835
1.289217549
1.289322526
1.289208589
1.289170432
1.289107318
1.289142636
1.289187625
1.289292683
1.289353407
1.28943577
1.289553899
1.28971051
1.289780552
1.289786986
1.289790474
1.289827595
1.289859134
1.289931473
1.296381059
1.268176618
1.289232651
1.289342717
1.289219911
1.289195326
1.289133582
1.289147019
1.289193888
1.289315229
1.289382458
1.28945891
1.289567219
1.289721285
1.289806245
1.289830035
1.289834104
1.289855368
1.289866506
1.289927253
1.296414241
1.26830905
1.289232182
1.28935666
1.289227776
1.289200058
1.28914319
1.289142571
1.289187241
1.28931511
1.289390775
1.28946807
1.289562649
1.289700961
1.289798359
1.289848473
1.28985409
1.289856998
1.289848309
1.289904244
1.296490982
1.268359373
1.28923595
1.289381932
1.28925506
1.289207525
1.289158181
1.289168483
1.289200815
1.28930714
1.289393695
1.28948529
1.289571693
1.289679935
1.289775755
1.289842501
1.28985231
1.289846438
1.289834861
1.289899992
1.296580682
1.268741189
1.289242604
1.289405621
1.289289054
1.289220986
1.289184562
1.289226835
1.289237496
1.289295937
1.289389602
1.289511771
1.289589935
1.289659779
1.2897422
1.289818475
1.289832963
1.289829432
1.289829871
1.2899167
1.29674786
1.268947172
1.289248834
1.289419285
1.289315998
1.289243709
1.289217479
1.289293848
1.289286419
1.289294433
1.28938448
1.289533583
1.289607847
1.289646652
1.289710732
1.289786388
1.289809027
1.289814027
1.289827523
1.289923651
1.296846589
1.269685821
1.28928064
1.289425664
1.289335455
1.289280437
1.289254575
1.289335171
1.289325865
1.289321438
1.289395333
1.289536533
1.289609567
1.289642413
1.289688377
1.289757061
1.289787441
1.289801205
1.289814712
1.289898057
1.296949539
1.270104165
1.289330051
1.289436
1.289356365
1.289334171
1.289299887
1.289341976
1.289344956
1.289370934
1.289423077
1.289521933
1.289592121
1.289637198
1.289674246
1.289727889
1.289763872
1.289785593
1.289787389
1.289839858
1.296927011
1.271269016
1.289400486
1.289466417
1.289388686
1.289400763
1.289362064
1.289341039
1.289351606
1.289427984
1.289467969
1.289508503
1.28956631
1.289631898
1.289661596
1.289694544
1.289727662
1.289755462
1.289749471
1.289776829
1.296855513
1.271888224
1.289458001
1.289513012
1.289430516
1.289463185
1.289435665
1.289365153
1.289363285
1.289473157
1.28951154
1.289513559
1.28954664
1.289618521
1.28964634
1.289654608
1.289671464
1.289704409
1.289709429
1.289743542
1.296651758
1.273459416
1.289507443
1.289566938
1.28947646
1.289507416
1.289500957
1.289431143
1.289401946
1.289499534
1.289544491
1.289536242
1.289534896
1.289593696
1.289624223
1.289614337
1.289605562
1.289641121
1.289675241
1.289746847
1.296360706
1.274214449
1.289532084
1.2896131
1.289523179
1.289531137
1.289543132
1.289517226
1.289471093
1.289516462
1.289555094
1.289554692
1.289526287
1.289557702
1.289593648
1.289579497
1.289549075
1.289581315
1.28965122
1.28976589
1.295969877
1.276244659
1.289562769
1.289650009
1.289574466
1.289548014
1.289563798
1.289600249
1.289557662
1.289542695
1.28955031
1.289563246
1.289527565
1.289530098
1.289562322
1.289556413
1.28952069
1.289547975
1.289633792
1.289770978
1.295445612
1.277136744
1.289595667
1.289678957
1.289629612
1.289578469
1.289580959
1.289654201
1.28963366
1.28957619
1.289544898
1.289561332
1.289541221
1.28952686
1.289539969
1.289539792
1.289521815
1.289547444
1.289623296
1.289752282
1.294867314
1.279573199
1.289650009
1.289706613
1.289683141
1.289632178
1.289614136
1.289680592
1.289680499
1.289615949
1.289553721
1.289567454
1.28957074
1.289553269
1.289532899
1.289535392
1.289547085
1.289577211
1.289623547
1.289715958
1.294121012
1.280502695
1.289697123
1.289730602
1.289709105
1.2896866
1.289665248
1.289689037
1.289692509
1.289648389
1.28957919
1.289578584
1.289604447
1.289595194
1.28954783
1.289541105
1.289578465
1.289617542
1.289639307
1.289689038
1.293413221
1.28325879
1.289745032
1.2897482
1.289710632
1.289723672
1.28972115
1.289703176
1.289689739
1.289673742
1.289618063
1.289601396
1.289632199
1.289638123
1.289581719
1.28956531
1.289614166
1.289662782
1.289670767
1.289682973
1.292507107
1.284127585
1.289768494
1.28975877
1.289705681
1.289736935
1.289750273
1.28972391
1.289695887
1.289697931
1.289663808
1.289630946
1.289651823
1.289669263
1.289626428
1.28960663
1.289652188
1.289702727
1.289706817
1.289698849
1.291768172
1.287196665
1.289596479
1.28974955
1.289391381
1.289691824
1.289411976
1.289682387
1.289433693
1.289681266
1.289547529
1.289663537
1.28960644
1.2897037
1.289659701
1.289707612
1.28970218
1.289782105
1.289738326
1.289737995
1.290824572
1.305215368
1.26420646
1.298168072
1.259013407
1.290996855
1.257977442
1.28701313
1.261279299
1.287209613
1.267799721
1.290859392
1.275663814
1.295799236
1.282615611
1.299668292
1.28656736
1.30065544
1.286668774
1.298621144
1.284210412
1.26462867
1.289248091
1.28936421
1.289289009
1.289316641
1.289309752
1.289284233
1.289288496
1.289452722
1.289560842
1.289576191
1.289607797
1.289784507
1.289905426
1.289896157
1.289843646
1.28983469
1.289842076
1.289935345
1.300522691
1.264603492
1.28923576
1.289413631
1.289324346
1.289339548
1.289342658
1.289304469
1.289296822
1.289450681
1.28957188
1.289613313
1.289636132
1.289764443
1.289878112
1.289906348
1.28988265
1.289879883
1.289880127
1.289963317
1.300569676
1.264754134
1.28921365
1.289451477
1.289355255
1.289332219
1.289331605
1.289303307
1.289300746
1.289431068
1.28955571
1.289635512
1.289659265
1.289722899
1.289810985
1.289879635
1.289893464
1.289897272
1.289881586
1.289954298
1.300837848
1.264723687
1.289214508
1.28948031
1.289394374
1.28932317
1.289298105
1.289318307
1.289339341
1.289425988
1.289528236
1.289652872
1.289702414
1.289709104
1.289753053
1.289844951
1.289894548
1.289898966
1.289859441
1.289924766
1.300894097
1.265209439
1.289249796
1.289496562
1.289428817
1.289322117
1.28926748
1.28936458
1.289411037
1.289426367
1.289479769
1.289647491
1.289747187
1.289725063
1.289722844
1.289813164
1.289885081
1.289888213
1.28983103
1.289893248
1.301330849
1.265356301
1.289300045
1.289501268
1.28945193
1.28933655
1.289262425
1.289425904
1.289487265
1.289437355
1.289434607
1.289610949
1.289756586
1.28975384
1.289724621
1.289791538
1.289861653
1.289868016
1.289816099
1.289878105
1.301318406
1.26628443
1.28936007
1.289494144
1.289458165
1.28937788
1.289296408
1.289447118
1.289517124
1.289473749
1.289438147
1.289566352
1.28972042
1.28976233
1.289738889
1.289772062
1.289822265
1.289841592
1.289818891
1.289892692
1.301698896
1.26661854
1.289388559
1.289496653
1.289461784
1.289434769
1.289370211
1.289433
1.289491546
1.289517452
1.289492694
1.289539884
1.289658756
1.289740896
1.28974633
1.289750247
1.289768293
1.289801831
1.289823998
1.289920485
1.30149177
1.268060201
1.289405397
1.289529796
1.289478711
1.289495943
1.289470448
1.289432337
1.289457028
1.289544238
1.289549595
1.289548867
1.28960339
1.289697787
1.289740268
1.289728872
1.289715569
1.289750777
1.2898095
1.289928616
1.301559299
1.268581934
1.2894046
1.289591715
1.289521192
1.289538489
1.289558177
1.289493135
1.289460171
1.2895463
1.289589735
1.289582744
1.289577367
1.289643855
1.289707556
1.289709558
1.289678402
1.289701021
1.289769133
1.289896927
1.301000658
1.270572156
1.28944423
1.289665745
1.289580975
1.28955365
1.289600602
1.289590901
1.289512827
1.289537609
1.289610063
1.289630905
1.289583109
1.289585416
1.289646628
1.289683153
1.289659369
1.289664837
1.289712837
1.289831211
1.300612473
1.271260393
1.289488134
1.289715001
1.289641795
1.289558317
1.289599359
1.289664242
1.289589364
1.289553666
1.289617342
1.289676122
1.289603623
1.289538217
1.289572296
1.289641697
1.289648762
1.289646336
1.289661395
1.289759963
1.299731305
1.27391731
1.289566085
1.289722677
1.289683512
1.289577643
1.289590892
1.289689449
1.28965705
1.289600022
1.289615755
1.289682021
1.289621364
1.289526969
1.289519273
1.289598582
1.289637752
1.289638013
1.289630508
1.289709335
1.298940994
1.27473932
1.289623897
1.289700696
1.289695394
1.289641325
1.289623577
1.289689658
1.289698079
1.289648557
1.289609271
1.289652909
1.289627861
1.289560651
1.289521372
1.289572506
1.289615409
1.289628879
1.289623979
1.289692586
1.297837162
1.277895083
1.28968029
1.2896865
1.289690799
1.289725756
1.289705805
1.289696936
1.289712132
1.289679729
1.289607708
1.289615166
1.289639278
1.289634385
1.289583721
1.289571073
1.289587254
1.289615872
1.289635793
1.289699069
1.296742709
1.278704024
1.289699573
1.289696562
1.289684274
1.289774166
1.289782374
1.289724176
1.289716328
1.289697494
1.28962049
1.289598999
1.289655517
1.289708666
1.289663001
1.289587499
1.289568804
1.28961085
1.289657003
1.289712754
1.295530485
1.282252379
1.28973524
1.28972918
1.289688786
1.289767642
1.289806469
1.289759903
1.289725913
1.289716708
1.289654991
1.289607707
1.28966683
1.289749978
1.28971767
1.289611478
1.289568074
1.289626336
1.289683997
1.28972634
1.294216245
1.282972908
1.289758601
1.289767726
1.289720374
1.289730968
1.289768294
1.289771127
1.289735845
1.289748305
1.289704818
1.289636597
1.28967388
1.289751708
1.289731521
1.289635161
1.289592952
1.28966001
1.289714921
1.28973778
1.292966135
1.286931504
1.289528763
1.289774442
1.289356968
1.289660955
1.289275132
1.289697873
1.289424052
1.289738805
1.289587459
1.289672044
1.289631224
1.289749268
1.289729258
1.28972083
1.289689907
1.28975859
1.289764011
1.289754796
1.291579993
1.307991937
1.259686332
1.299714462
1.253678603
1.291194205
1.253101779
1.286466832
1.258176389
1.28680156
1.267076205
1.29110909
1.277353016
1.296781398
1.286230628
1.3010221
1.291160106
1.301482682
1.290778981
1.297994608
1.287040039
1.253230135
1.289089641
1.289467533
1.289439894
1.289453805
1.289456204
1.289488391
1.289480624
1.289545251
1.289684683
1.289830898
1.289823919
1.289835193
1.289927378
1.290028075
1.289985691
1.289860195
1.289783623
1.289956736
1.306565117
1.253135109
1.289076355
1.289565327
1.289520682
1.289469958
1.289526362
1.28956606
1.289503132
1.289553389
1.289718731
1.289846189
1.289816814
1.289815776
1.289911066
1.289999828
1.289968398
1.289892085
1.289848744
1.29001468
1.306803634
1.253123035
1.289048153
1.289605423
1.289544038
1.289464162
1.289540806
1.289575254
1.289502706
1.289561471
1.289718943
1.289824163
1.289807784
1.28980682
1.289867981
1.289925622
1.28992542
1.289911783
1.289888119
1.290026339
1.307213696
1.253006759
1.289047947
1.289571817
1.289516969
1.289473751
1.289506602
1.289523865
1.28951778
1.289599182
1.289703607
1.289785789
1.28981866
1.289846887
1.289853118
1.289868389
1.289904862
1.289934285
1.289897937
1.289990154
1.307734487
1.253316165
1.289130883
1.289540316
1.289503022
1.289495188
1.289448962
1.289480751
1.28957828
1.289660662
1.289654597
1.289717634
1.28985296
1.289924007
1.289861357
1.289833125
1.289904129
1.289950976
1.289876819
1.289919784
1.308315625
1.253524618
1.289259773
1.289543952
1.289532885
1.289527088
1.289404248
1.289461621
1.289666568
1.289726532
1.289589194
1.28961944
1.289845519
1.289970779
1.28987739
1.289815136
1.289898032
1.289944364
1.28984659
1.289860395
1.30885739
1.25443955
1.289349939
1.289573571
1.289574636
1.289558768
1.289409913
1.289456354
1.289683311
1.289778661
1.289596015
1.289548399
1.289787057
1.289958231
1.289882467
1.289806496
1.28986733
1.289906565
1.289831454
1.289867438
1.309223429
1.255009503
1.28933077
1.289609734
1.289594663
1.289576684
1.289478443
1.289471681
1.289632031
1.289769825
1.289666334
1.289593628
1.289722603
1.289884604
1.289861086
1.289795437
1.289814143
1.289843493
1.289833853
1.289927898
1.309451641
1.256640437
1.289247998
1.289642702
1.289603186
1.289584904
1.28958147
1.289547111
1.289593608
1.289694692
1.289694929
1.289669027
1.289692349
1.289772954
1.289805005
1.289783819
1.289767951
1.289782728
1.289828131
1.289981711
1.309198605
1.257713164
1.289176941
1.28968059
1.289623437
1.28957409
1.289647996
1.289675618
1.289628826
1.289603445
1.289658903
1.289738184
1.289696976
1.28967543
1.289724975
1.289766671
1.289755657
1.289749541
1.289799555
1.289966914
1.308733465
1.260310339
1.289226264
1.289734501
1.28967858
1.289558546
1.289652956
1.289805664
1.289714047
1.289553167
1.289615406
1.289773624
1.289724872
1.289623117
1.28963387
1.28973512
1.289772394
1.289748383
1.289748395
1.289875211
1.307613039
1.261888647
1.289352117
1.289771587
1.289751803
1.289571295
1.289621023
1.289839518
1.289787442
1.289593635
1.289609077
1.2897679
1.289766171
1.289628371
1.289555028
1.28967184
1.289781237
1.289759178
1.289691496
1.289748501
1.306441185
1.265533561
1.289532834
1.289771235
1.289787187
1.289642591
1.289616044
1.289773801
1.289811901
1.289701036
1.289635717
1.289725668
1.289792866
1.289686651
1.289529444
1.289594709
1.289741447
1.289752571
1.289651273
1.289666291
1.304674409
1.267390985
1.289638748
1.289740306
1.289762464
1.289745103
1.289690862
1.289688892
1.289778455
1.289790961
1.289664147
1.289656405
1.289779977
1.289756423
1.289577395
1.28954535
1.289656675
1.289704737
1.289641923
1.289665195
1.303109175
1.271691795
1.289691971
1.28971286
1.28970175
1.289831873
1.289812221
1.28966901
1.28973485
1.289798008
1.289675945
1.289614298
1.289734506
1.289801274
1.289679797
1.289571319
1.289572915
1.28963356
1.28965631
1.289724991
1.300954945
1.273482489
1.289667308
1.28969889
1.289671825
1.289850111
1.289880652
1.289732078
1.289708206
1.289744228
1.289690198
1.289624355
1.289673476
1.289784356
1.289771145
1.289651933
1.289544013
1.289576836
1.289667921
1.289782129
1.299260987
1.278377064
1.289685508
1.289706834
1.289700194
1.289806623
1.289855721
1.28981652
1.289726173
1.289714027
1.289739197
1.289682645
1.28962281
1.289715009
1.28981408
1.289751036
1.289577933
1.28955997
1.289667626
1.289794224
1.296819436
1.280000291
1.289719392
1.289742373
1.289795814
1.289759706
1.289767724
1.289834119
1.289754095
1.289738017
1.289806131
1.289770993
1.289622884
1.289630066
1.289794066
1.289809435
1.289641705
1.289583845
1.289668676
1.289771332
1.295088653
1.285445163
1.289417081
1.289740709
1.289310343
1.289645103
1.289015886
1.289644706
1.28929698
1.289711401
1.289614846
1.289807524
1.289594709
1.289641375
1.289755866
1.289878328
1.289769868
1.289713906
1.289719083
1.289754979
1.292570202
1.308451853
1.254078769
1.295930344
1.244697628
1.283025864
1.242848023
1.276257308
1.249123157
1.278651675
1.261032621
1.287550189
1.27482009
1.298126682
1.286585576
1.306354875
1.292688022
1.30855149
1.291002096
1.3037913
1.284870841
1.244104864
1.288846533
1.289588919
1.289601985
1.289592061
1.289559404
1.289678555
1.289764522
1.289671786
1.289778084
1.290029063
1.29002518
1.289945276
1.289986131
1.290158063
1.290151424
1.289932058
1.289748433
1.289987292
1.317845954
1.243927393
1.288928273
1.289751347
1.289756402
1.289552782
1.289589388
1.289809204
1.289831188
1.289712145
1.289765043
1.290002554
1.290042407
1.289930162
1.289932132
1.290035351
1.290044989
1.289937661
1.289831601
1.290067243
1.318169217
1.243871157
1.28895401
1.289784176
1.289763871
1.289531331
1.289639592
1.289836035
1.289797857
1.289725227
1.289761296
1.28994751
1.29004908
1.289967189
1.289915998
1.289908359
1.289925529
1.289932017
1.289900917
1.290099962
1.319170202
1.243387385
1.288940584
1.289651316
1.289610656
1.289596895
1.289736938
1.289703677
1.289661858
1.289805237
1.289854415
1.289892337
1.290030013
1.290095079
1.290009045
1.289867102
1.289863081
1.289949934
1.289951896
1.290088055
1.319876879
1.243706924
1.289032839
1.289543625
1.289497751
1.289692752
1.289776805
1.289561215
1.289578403
1.28990885
1.28994672
1.289813883
1.289944144
1.290166997
1.290115518
1.289909818
1.289869758
1.289964333
1.289952644
1.290013147
1.321337775
1.243608751
1.289179749
1.289530942
1.289514115
1.28977946
1.289732297
1.289422858
1.289583499
1.290005557
1.29002481
1.289746171
1.289707481
1.290080954
1.290144931
1.290002285
1.28991555
1.289959274
1.289901626
1.289911429
1.321873929
1.244737848
1.289262972
1.289608202
1.28962043
1.289795435
1.289692991
1.289362838
1.289591535
1.290042013
1.290057264
1.290451987
1.289611694
1.289968974
1.290118514
1.290027464
1.289922954
1.289920767
1.289847236
1.289861187
1.323002188
1.245065713
1.289173615
1.289704557
1.289712201
1.289735791
1.289680868
1.289453985
1.289626194
1.289978817
1.290092159
1.293445024
1.289703816
1.289876407
1.290047292
1.289980038
1.289882087
1.289859672
1.28981766
1.289880901
1.322856231
1.247209463
1.28905257
1.289744505
1.289734434
1.289652212
1.289690001
1.289654956
1.289689144
1.289812787
1.289954655
1.290061988
1.289774685
1.289804324
1.289930037
1.289904815
1.289833423
1.289822319
1.289822171
1.289926717
1.322857987
1.248220296
1.288977272
1.289742129
1.289714228
1.289594818
1.289682707
1.289827408
1.289774723
1.289637312
1.289776716
1.289966808
1.289806571
1.289727195
1.289791623
1.289821622
1.289802739
1.289821988
1.289837245
1.289946078
1.321579029
1.251842093
1.289112758
1.28972478
1.289717669
1.2895907
1.289677248
1.289911983
1.28987388
1.289606659
1.289648616
1.28988695
1.289830006
1.289761893
1.289718551
1.289744814
1.28979296
1.289838081
1.289829693
1.289895138
1.320060018
1.25354462
1.289319522
1.289721482
1.289752759
1.289668387
1.289687263
1.289852907
1.289918393
1.289744725
1.28963795
1.289720878
1.289853994
1.28990079
1.289735554
1.289687881
1.289777455
1.289837072
1.289784305
1.289791333
1.317683523
1.25867986
1.289546556
1.289727928
1.289771948
1.289800174
1.289742929
1.289693564
1.289869419
1.289954231
1.289743274
1.2895785
1.289859558
1.290001583
1.289775872
1.28963317
1.289729106
1.289803156
1.2897279
1.289701615
1.314906845
1.260572146
1.289592054
1.289757084
1.289758471
1.289881822
1.289833983
1.289592987
1.289788414
1.290045326
1.289814298
1.289570286
1.289839235
1.28997775
1.289770615
1.289603826
1.289655893
1.28974228
1.289694196
1.289692504
1.311953634
1.266664244
1.289608498
1.289792312
1.28972305
1.289879705
1.289916014
1.2896512
1.289730078
1.289937031
1.289803899
1.289660584
1.289790538
1.2898534
1.289742715
1.289628831
1.289606055
1.289673662
1.289689444
1.289755216
1.30842339
1.268463849
1.289538231
1.289785249
1.289747247
1.289830909
1.289877748
1.289805002
1.28974448
1.289734919
1.289746042
1.289761041
1.289721803
1.289700276
1.289724957
1.289710272
1.289616756
1.289615392
1.28968495
1.289821035
1.305372532
1.275454596
1.289591629
1.289737863
1.289849649
1.289791803
1.289768007
1.289923808
1.289817713
1.289616412
1.289726815
1.28984946
1.289676501
1.289598096
1.2897302
1.28980445
1.289674239
1.289579585
1.289651865
1.28982611
1.301450699
1.276982083
1.289667568
1.289708836
1.28993802
1.289810194
1.289675257
1.289919108
1.289857523
1.289653391
1.289786912
1.289897044
1.28967611
1.289574039
1.289751491
1.289867108
1.289730273
1.289568588
1.289613099
1.289782661
1.298469815
1.284623636
1.289189399
1.289669563
1.289067231
1.289727795
1.288629319
1.289613718
1.289213032
1.289694294
1.28959321
1.28986218
1.289669298
1.289672511
1.289846877
1.289969701
1.289892106
1.28969774
1.289692103
1.289751215
1.29447306
1.313971447
1.243809581
1.298314386
1.231965573
1.281931667
1.230924291
1.273237617
1.241583702
1.276335537
1.25926099
1.287322976
1.278849249
1.300582555
1.295611683
1.310588342
1.30450247
1.311656506
1.301401183
1.302921818
1.291693857
1.222912028
1.288132444
1.289599851
1.289562196
1.289861096
1.289941029
1.289581211
1.290007342
1.290443354
1.289975708
1.289633675
1.290091553
1.290490073
1.290199613
1.289800356
1.289974762
1.290097048
1.289927718
1.290073406
1.334786137
1.222573463
1.288384835
1.289822509
1.289883896
1.289636908
1.289640437
1.289843367
1.290081549
1.290028737
1.289852907
1.289904383
1.290175388
1.290295061
1.290143787
1.289989599
1.290032563
1.290042986
1.289882963
1.290076905
1.33572138
1.222040907
1.288476412
1.289876937
1.289985522
1.28953972
1.289558147
1.289994001
1.289980128
1.289674284
1.289866805
1.29024432
1.290155053
1.290033738
1.290099787
1.290195048
1.290046174
1.289950238
1.289850332
1.290069652
1.337592823
1.220981417
1.288368291
1.289748336
1.289810321
1.289669759
1.289819866
1.290011844
1.289752096
1.289537193
1.2901002
1.290574162
1.290082319
1.289805223
1.290075318
1.290318616
1.290030956
1.289884301
1.289877826
1.290086037
1.339969532
1.220448427
1.288309213
1.289602888
1.289608555
1.289847514
1.290076148
1.289894892
1.289518216
1.289626252
1.29032838
1.290685882
1.290016526
1.289722783
1.290122718
1.290384768
1.289997022
1.289849697
1.289918499
1.290074084
1.34270206
1.219927775
1.288324503
1.28953146
1.289561332
1.289910395
1.290093927
1.289680724
1.289305677
1.289714645
1.290439377
1.292405153
1.2899646
1.28968688
1.290168675
1.290417825
1.289986039
1.289846102
1.289921956
1.290005235
1.345075291
1.220602699
1.288358735
1.289603337
1.289691088
1.289863054
1.289963734
1.289593849
1.289274894
1.289703599
1.291669659
1.330255964
1.290398443
1.289648746
1.290158632
1.290430009
1.289990371
1.289851008
1.289888244
1.289902586
1.346847794
1.221125987
1.288321343
1.289760199
1.289872645
1.289750145
1.289814143
1.289729683
1.289467799
1.289684945
1.294431748
1.398597322
1.294047266
1.289686561
1.290132337
1.290398182
1.289974461
1.289840549
1.289839492
1.289810094
1.347700382
1.223589389
1.288357047
1.289840371
1.289938954
1.289632712
1.289706688
1.289941937
1.289715962
1.289609096
1.290400519
1.307443631
1.290217081
1.289743008
1.290089963
1.290285076
1.289922029
1.289830788
1.289820519
1.289781973
1.347143578
1.225604188
1.288450447
1.289758934
1.289860333
1.289618344
1.2896762
1.290012341
1.289855205
1.289599423
1.289854372
1.290690488
1.290066207
1.289817826
1.290017424
1.290100146
1.289839285
1.289825526
1.289843038
1.289790876
1.345576859
1.230572539
1.288753903
1.289617917
1.28974279
1.289709521
1.289730789
1.289888584
1.289877417
1.289702139
1.28978404
1.290077887
1.290006095
1.289882928
1.289931658
1.289912126
1.289749014
1.289822339
1.289876622
1.289817941
1.342273213
1.233935293
1.289046774
1.289545661
1.289665439
1.28985683
1.28983641
1.289655247
1.28976337
1.289877125
1.289885435
1.289882548
1.289901847
1.289930391
1.289921173
1.289814328
1.289678905
1.289797333
1.289879126
1.289810613
1.338337448
1.241260496
1.289278491
1.28960534
1.289657841
1.290008828
1.289990054
1.289450866
1.289570241
1.290058043
1.290094618
1.28973342
1.289678125
1.289936862
1.290003397
1.289839396
1.289653747
1.289748548
1.289836968
1.289795064
1.332782757
1.245148961
1.289250305
1.28974794
1.289704211
1.289991617
1.290098524
1.289489205
1.289488762
1.290124969
1.290218835
1.289638511
1.289458836
1.289871759
1.290116068
1.289900215
1.289648786
1.2896805
1.289768659
1.289779834
1.327500961
1.253898869
1.289268041
1.289868831
1.289764551
1.28981791
1.290051742
1.289767657
1.289635446
1.290022696
1.29012504
1.289701521
1.289466442
1.289757187
1.290057189
1.289894597
1.28966893
1.289642022
1.289712639
1.289793572
1.320833085
1.257721828
1.289220951
1.289887174
1.289898657
1.289682475
1.289843336
1.290024999
1.289908956
1.289822778
1.289864721
1.289825357
1.289680441
1.289707244
1.289829192
1.289783554
1.289708849
1.289656594
1.289676158
1.289794297
1.315631461
1.267829296
1.289393908
1.289780845
1.290056217
1.289724942
1.289616853
1.29004871
1.290093464
1.289679336
1.289602285
1.289917544
1.289961015
1.289721614
1.289559254
1.289644128
1.289795738
1.289736779
1.289663066
1.289767475
1.308676433
1.270934555
1.289576026
1.289669852
1.290029964
1.28988144
1.289516459
1.289870019
1.290056568
1.289635856
1.289459443
1.289912737
1.290150356
1.289762885
1.289383753
1.289574084
1.289886515
1.289835419
1.289670382
1.289707542
1.304030883
1.281685976
1.288876993
1.289564605
1.288295633
1.289679526
1.287775274
1.28909499
1.288755337
1.289390394
1.289012851
1.289778549
1.290098786
1.289932946
1.28957668
1.28976416
1.290086437
1.28993057
1.289793598
1.289675675
1.297147627
1.315257492
1.232269789
1.291508576
1.213722578
1.265845138
1.210311663
1.25190132
1.224569873
1.259862868
1.249482134
1.28053458
1.276530429
1.304184751
1.299789456
1.323418796
1.311535931
1.328577975
1.304448832
1.315954717
1.288315396
1.204076314
1.287345832
1.289608985
1.289477107
1.290151099
1.290509002
1.289571476
1.289757926
1.290234075
1.290037989
1.290037137
1.290299302
1.290369035
1.290136895
1.289747943
1.289752138
1.290187687
1.29015515
1.290141891
1.358722011
1.203093191
1.287670422
1.289659118
1.289782049
1.2898249
1.289831561
1.289662339
1.289999814
1.290373136
1.29026732
1.290084642
1.290261878
1.290466831
1.29033574
1.290062136
1.289967318
1.290036564
1.289985359
1.290074477
1.360308944
1.202089455
1.287777774
1.289715704
1.29002295
1.289671649
1.289504122
1.289862335
1.290166672
1.290439729
1.290429854
1.290164686
1.290138522