/*--------------------------------*- C++ -*----------------------------------*\
| =========                 |                                                 |
| \\      /  F ield         | OpenFOAM: The Open Source CFD Toolbox           |
|  \\    /   O peration     | Version:  5.x                                   |
|   \\  /    A nd           | Web:      www.OpenFOAM.org                      |
|    \\/     M anipulation  |                                                 |
\*---------------------------------------------------------------------------*/
FoamFile
{
    version     2.0;
    format      ascii;
    class       volScalarField;
    location    "6.4";
    object      T;
}
// * * * * * * * * * * * * * * * * * * * * * * * * * * * * * * * * * * * * * //

dimensions      [0 0 0 1 0 0 0];

internalField   nonuniform List<scalar> 
30538
(
276.8293129
273.02779
272.964125
272.9504432
272.9416229
272.9354397
272.9443071
272.9502709
272.9556367
272.9613114
272.9748628
272.9889505
272.9994365
273.0038331
273.0075628
273.0103283
273.0143943
273.0191396
273.0072664
271.8922353
276.8271409
273.0229593
272.9581778
272.9444693
272.937984
272.931805
272.9388135
272.9451789
272.9522175
272.9574123
272.9688102
272.9823126
272.9951009
273.0019566
273.0061587
273.0081643
273.0100361
273.0113069
272.9971652
271.8858554
276.7945894
273.022021
272.957375
272.9438144
272.9401964
272.9347206
272.9387831
272.9449149
272.9538403
272.9586195
272.9671123
272.979314
272.9944292
273.0042983
273.0091959
273.0099695
273.0096867
273.0084383
272.9930397
271.8690445
276.7890933
273.0208932
272.9584016
272.9452312
272.9435559
272.9396607
272.940918
272.9453577
272.9547903
272.9599123
272.9666681
272.9770488
272.9926539
273.0039919
273.0089904
273.0087176
273.0080701
273.0076448
272.9940752
271.8749997
276.698945
273.0179672
272.9608365
272.9483988
272.9471897
272.945492
272.9455231
272.9470305
272.954848
272.9613311
272.9682359
272.976345
272.9898818
273.0009563
273.0057163
273.0048421
273.0054049
273.0085542
272.9990323
271.8513889
276.6635681
273.0155439
272.9640357
272.9525029
272.9506871
272.9504731
272.9515101
272.9497906
272.9548235
272.9626586
272.9712295
272.9772617
272.9869536
272.9963696
273.0012942
273.000986
273.0028649
273.0084197
273.0022957
271.8657374
276.5059311
273.0135171
272.9673877
272.9567901
272.9542739
272.954032
272.9565722
272.9534539
272.9559327
272.9640075
272.9736789
272.9783515
272.9842485
272.9914973
272.9978707
272.9998232
273.0017831
273.0052808
272.9979081
271.8284689
276.450372
273.0151288
272.9705801
272.9609171
272.9584635
272.9566654
272.9595526
272.957028
272.9587036
272.9654609
272.9747387
272.9790845
272.9819611
272.9869869
272.9954976
273.0008548
273.0020621
272.9997918
272.9872445
271.8378216
276.2259524
273.016756
272.973544
272.9649004
272.9638154
272.9600789
272.9608807
272.9601284
272.9631143
272.9678114
272.9750029
272.9793829
272.9809695
272.9837517
272.9929112
273.0012494
273.0022183
272.9948081
272.9772848
271.813593
276.1450411
273.0192064
272.9761501
272.9684989
272.9697847
272.9653159
272.9625581
272.962518
272.9674907
272.970423
272.9750029
272.9797513
272.9822837
272.9826704
272.9890461
272.9974101
272.9998593
272.9926092
272.975662
271.8656514
275.8438935
273.0175964
272.978786
272.9717016
272.9752987
272.9718476
272.9666861
272.965573
272.9709052
272.9722986
272.9747113
272.9800604
272.9849781
272.9838889
272.9845872
272.9893972
272.9943658
272.9930639
272.9828758
271.9026034
275.7359959
273.0156196
272.9823224
272.9752369
272.9791757
272.9777605
272.9737446
272.9709318
272.9731304
272.9729
272.9741725
272.9798877
272.9871274
272.9867669
272.98155
272.9803878
272.9868243
272.9943556
272.9938122
272.0014628
275.3494915
273.0106897
272.9867691
272.9800865
272.9813747
272.9816549
272.9818716
272.9782564
272.97583
272.9731931
272.9745125
272.9796492
272.9876161
272.989248
272.9816721
272.9752058
272.981034
272.9943052
273.0012654
272.0750504
275.2242758
273.0085298
272.9918694
272.9862634
272.9828626
272.9830824
272.98797
272.9853113
272.9794022
272.9749841
272.97613
272.9797518
272.9856586
272.9888001
272.9839732
272.9768917
272.9805918
272.9931184
273.0019487
272.1863487
274.7718383
273.0061204
272.9963504
272.9924251
272.9851408
272.9836387
272.9906081
272.9897951
272.9838042
272.9792681
272.9800448
272.9810332
272.9826303
272.9856715
272.9861527
272.9838557
272.9853863
272.9921942
272.9977487
272.2769586
274.6443698
273.0066197
272.9988285
272.9958547
272.9894334
272.9863953
272.9907661
272.990896
272.9875108
272.9849465
272.9852303
272.9838174
272.9809758
272.9822287
272.9876047
272.991395
272.9926454
272.9933255
272.9933657
272.3989856
274.1357497
273.0056274
272.9992197
272.9962427
272.9945738
272.9921847
272.9914588
272.990279
272.9900663
272.9899101
272.9900813
272.9876736
272.9825823
272.9819362
272.9891486
272.9969904
272.9989606
272.9960896
272.9923959
272.5270193
274.0132203
273.0055874
272.9984427
272.9959586
272.9991108
272.9989109
272.9942975
272.9919336
272.9921711
272.9933014
272.9937615
272.9915091
272.9869195
272.9853148
272.9915968
273.0002462
273.0024741
272.9988675
272.9939407
272.6664019
273.4480669
273.0388832
272.999788
273.0515183
273.0081247
273.0686893
273.0083133
273.0466352
273.0013886
273.0251998
272.9984902
273.0085357
272.9917045
272.9969504
272.9889706
273.0016167
272.9953648
273.0013262
272.9949057
272.8161108
269.7921869
278.1593509
270.9840798
279.0692184
272.2299549
279.216214
272.9572326
278.53595
273.0309712
277.286911
272.5313319
275.7838901
271.7699528
274.4511106
271.1953385
273.6879219
271.0962664
273.6116394
271.4687321
274.0264167
277.6252405
273.0404162
272.9646562
272.9536134
272.9504196
272.9455838
272.9494799
272.9543937
272.9643528
272.9704269
272.9779572
272.9887699
273.0024625
273.0088352
273.0094625
273.009874
273.0137006
273.0169484
272.9970149
271.6195019
277.6218347
273.0346784
272.9601064
272.9484155
272.9464134
272.9417682
272.9437602
272.9487373
272.9599819
272.9664786
272.9733794
272.9832374
272.9966188
273.0041792
273.0062786
273.0067905
273.0093022
273.0107857
272.99035
271.6085152
277.591654
273.0330131
272.9615715
272.9494956
272.9473007
272.943138
272.9438866
272.9485182
272.9600942
272.9670608
272.9738014
272.9822902
272.9941747
273.002672
273.0070027
273.0077278
273.0087768
273.0086478
272.988691
271.5895563
277.5798643
273.0316603
272.9641673
272.9524269
272.9486301
272.9451583
272.9467668
272.9500998
272.9595469
272.9670998
272.9748005
272.9823401
272.9915124
272.9997421
273.0055023
273.0066946
273.0071314
273.0068556
272.98899
271.5723103
277.4943929
273.0291032
272.9667195
272.9560464
272.9505924
272.948242
272.9524468
272.95363
272.958652
272.9664635
272.9764978
272.9830846
272.9888762
272.9958748
273.0025245
273.0042585
273.0050006
273.0058763
272.9910531
271.5424759
277.4476264
273.0269769
272.9684781
272.9591483
272.9534225
272.9519056
272.9588254
272.9581486
272.9585058
272.9656844
272.9777543
272.9838018
272.9869196
272.9923789
272.9991178
273.0016761
273.003201
273.0053164
272.9928393
271.5244994
277.2888745
273.0251428
272.9695893
272.9616384
272.9574395
272.9558597
272.9629001
272.9617597
272.9606819
272.9662381
272.9774458
272.9832746
272.9859127
272.9899478
272.996228
272.9996056
273.0019198
273.0040642
272.9919015
271.4983169
277.2046754
273.0258748
272.9710295
272.9642156
272.9628096
272.960374
272.9638825
272.9634949
272.9647403
272.9682458
272.975757
272.9813754
272.9851503
272.9885849
272.9937312
272.9977029
273.0007015
273.0018016
272.9885533
271.492262
276.9606577
273.0259163
272.9740872
272.9676354
272.9690928
272.9661403
272.9640159
272.9640221
272.9693734
272.9717809
272.9743736
272.9790365
272.9847197
272.9876965
272.9912187
272.9949922
272.9984974
272.9988473
272.9845597
271.4965848
276.8326869
273.0263785
272.9784319
272.9716673
272.9747954
272.9726491
272.9661034
272.9648713
272.9730277
272.9753223
272.9748169
272.9775736
272.9840104
272.9869784
272.9884837
272.9908837
272.9947836
272.9959739
272.9834354
271.536104
276.4916954
273.0233648
272.9832371
272.9758114
272.9787137
272.9782254
272.9715579
272.9679432
272.9751226
272.9781572
272.9770559
272.9771732
272.9827307
272.9860745
272.9860673
272.9862462
272.9903087
272.9938537
272.9856174
271.601963
276.3251212
273.0204506
272.987221
272.9798045
272.9806996
272.9816486
272.978646
272.9735989
272.9765096
272.9792936
272.9792127
272.9773603
272.9807911
272.9847034
272.9842916
272.9825243
272.9861727
272.9926558
272.989352
271.69321
275.8833969
273.0150314
272.9902227
272.9840252
272.9819739
272.9831383
272.9854387
272.9808023
272.9787905
272.9792932
272.9807344
272.9785502
272.9796929
272.983331
272.9835338
272.9811513
272.9842232
272.9919392
272.9920379
271.8080396
275.6919343
273.0125635
272.9924532
272.9884821
272.9843192
272.9843031
272.9898061
272.9872106
272.981835
272.9793478
272.9814321
272.9808091
272.9806362
272.9826149
272.9831828
272.9821306
272.9848809
272.9916038
272.992517
271.9275974
275.1698081
273.0093345
272.9945835
272.992782
272.9886111
272.9868592
272.9918914
272.9912333
272.9855298
272.9806456
272.9827522
272.9842636
272.9838733
272.982884
272.9835068
272.9847778
272.9877515
272.9917977
272.9915405
272.0769437
274.9724361
273.0087105
272.9964333
272.994764
272.9930171
272.9910017
272.9925358
272.9923967
272.9886712
272.9833491
272.9843395
272.9877788
272.987993
272.9845413
272.9841907
272.987463
272.9910853
272.9929328
272.990775
272.2186791
274.3819573
273.0063569
272.9978317
272.9947356
272.9960021
272.9956509
272.9937819
272.9923862
272.991229
272.9871207
272.9866968
272.9904045
272.9917713
272.9873992
272.9860894
272.9902196
272.9945475
272.995139
272.9919789
272.4063601
274.1965451
273.0055013
272.9988144
272.9950306
272.9971697
272.9990627
272.9958236
272.9938728
272.993726
272.9916005
272.9893632
272.9920669
272.9941333
272.990769
272.9890733
272.992836
272.9972702
272.9974781
272.9942669
272.5641913
273.5437759
273.0421087
273.0018441
273.0595927
273.0075517
273.0751115
273.0120411
273.0553588
273.0051042
273.0287887
272.995266
273.0074758
272.9938888
272.9989475
272.9849391
272.9948069
272.9897567
272.999295
272.9943675
272.768274
269.7684623
278.5212114
271.2319144
279.66047
272.7347094
279.900835
273.5837156
279.1608171
273.5367215
277.721992
272.7578509
276.0078048
271.7203616
274.5149475
270.9111132
273.6716515
270.7130547
273.6554787
271.1350096
274.1783924
278.4179645
273.0572758
272.9701739
272.9627005
272.9646336
272.9639627
272.9620165
272.9631605
272.9782268
272.988488
272.9904868
272.9936491
273.00816
273.0175799
273.0158964
273.0112518
273.0119924
273.0141407
272.9870586
270.7444308
278.414459
273.0492029
272.9680149
272.9594089
272.9603619
272.9606686
272.9576247
272.957662
272.9717516
272.9830683
272.9871627
272.989467
272.9997397
273.0084774
273.0100292
273.0079189
273.00915
273.0106058
272.9832805
270.7365782
278.3718806
273.0452821
272.9713127
272.9622501
272.9600751
272.9602267
272.9580717
272.9584474
272.9703273
272.9817329
272.9888716
272.9910234
272.995671
273.0021569
273.0071844
273.0083949
273.0101904
273.0102444
272.9832754
270.6815903
278.3751816
273.043774
272.9739384
272.9658818
272.9597844
272.9580244
272.9600894
272.9623501
272.9702431
272.9793931
272.9900497
272.9941617
272.9938583
272.9965277
273.0036385
273.0080333
273.0098594
273.0078289
272.9822622
270.6684362
278.2709175
273.0427685
272.9755342
272.9691838
272.9602275
272.9561332
272.9648384
272.9691217
272.9706495
272.9752358
272.9892557
272.9973445
272.9945186
272.9933008
273.0004506
273.0068982
273.0085367
273.0049726
272.9809274
270.5753226
278.2469973
273.0446734
272.9762289
272.9715748
272.9620655
272.9564427
272.9708688
272.9762623
272.9719257
272.9713294
272.9857255
272.9975122
272.9963341
272.9929609
272.9983527
273.0047828
273.0065937
273.003438
272.9817757
270.5783596
278.0526731
273.0439653
272.9759389
272.9725914
272.9662146
272.9600496
272.973344
272.9793297
272.975213
272.971535
272.9816095
272.9938764
272.9965732
272.9938737
272.9966229
273.0015222
273.004328
273.003565
272.9849936
270.5032343
277.984153
273.0430361
272.976528
272.9734448
272.9716848
272.9669705
272.9726416
272.977485
272.9790364
272.9760171
272.9789793
272.9882327
272.994428
272.9944348
272.9949217
272.9972084
273.0011616
273.0040357
272.9896928
270.5519965
277.6667314
273.0368399
272.979705
272.9754399
272.9774565
272.976012
272.9728547
272.9746323
272.9812
272.9806542
272.9794835
272.9832705
272.9906595
272.9940346
272.9933673
272.9931386
272.9971815
273.003018
272.9924013
270.5406393
277.5451853
273.0327999
272.985361
272.9795337
272.9815082
272.9837788
272.9781434
272.9747925
272.9811968
272.9838827
272.9822708
272.9810856
272.9862631
272.9915952
272.9922297
272.9905812
272.9935663
273.0000419
272.9916153
270.6537402
277.1038713
273.0267509
272.9919497
272.9849868
272.9830366
272.9874196
272.9862953
272.9789375
272.9801186
272.9854594
272.9864482
272.9818715
272.981746
272.9869884
272.9906828
272.989767
272.9913541
272.9960123
272.9882398
270.7264984
276.9567474
273.0256418
272.996411
272.9904068
272.9835095
272.9870894
272.9921184
272.9849532
272.9811336
272.9859785
272.9905071
272.9841003
272.9783742
272.9814118
272.9879657
272.9897576
272.9907493
272.9925984
272.9845098
270.9001235
276.3895078
273.0218984
272.9972085
272.9941025
272.9850923
272.9859671
272.9936552
272.990165
272.9847606
272.9858259
272.9913535
272.9862258
272.978179
272.9777004
272.9851059
272.9896565
272.9909746
272.9909349
272.9829059
271.0581188
276.220463
273.021923
272.9954253
272.9951767
272.9903731
272.9883169
272.9930918
272.993182
272.9886547
272.9853429
272.9892604
272.9874218
272.9818204
272.9786434
272.9835729
272.9884002
272.9909061
272.991125
272.9839088
271.2864358
275.5400567
273.0165353
272.9942256
272.9947326
272.9973707
272.9949509
272.9932808
272.9940435
272.9911934
272.985357
272.9864512
272.9889595
272.9887558
272.984516
272.9838612
272.9862573
272.9900793
272.9924322
272.9871733
271.5167569
275.3605351
273.0135464
272.9950195
272.9940101
273.0012428
273.0011721
272.9953621
272.9942715
272.9927409
272.9866641
272.9854224
272.9907698
272.9954911
272.9915618
272.9853573
272.9845882
272.9894931
272.9940977
272.9903915
271.7734647
274.5923472
273.0080141
272.9976146
272.9941356
273.0004082
273.0030342
272.998371
272.9951907
272.9946195
272.9899174
272.9864834
272.9920174
272.9992517
272.9963929
272.9874232
272.9843259
272.9904182
272.9959404
272.9940052
272.0526766
274.4391431
273.0070082
273.0006698
272.9975456
272.9971388
273.0008886
272.9995833
272.9971262
272.9977212
272.9947396
272.9892
272.9928313
272.9995034
272.9976429
272.9894349
272.9862022
272.99279
272.9979019
272.9965098
272.3182
273.6019084
273.0568926
273.005022
273.0860738
273.0053324
273.0892657
273.0133193
273.0677356
273.0089989
273.0326415
272.9946591
273.0043198
272.9951467
272.9964546
272.9818762
272.982501
272.9852437
272.9944127
272.9943416
272.6124463
269.2004528
279.5227957
270.9145613
280.8551752
272.6868856
280.9842728
273.6995577
279.8536558
273.6320635
277.885996
272.7059028
275.6421211
271.5154569
273.7444784
270.6270441
272.6926852
270.5385324
272.7843962
271.2647413
273.5771983
280.959744
273.1045504
272.9808096
272.9771
272.9777621
272.9780222
272.9810836
272.9812591
272.9878039
273.0006775
273.0137115
273.0130221
273.0124206
273.0182759
273.0258647
273.0228062
273.0142253
273.0092913
272.9742669
269.4929393
280.967751
273.0961745
272.9827556
272.9777198
272.9728873
272.9778561
272.9815041
272.9768814
272.9822373
272.9973656
273.0086539
273.0058853
273.0040982
273.0101614
273.0167559
273.0146894
273.0102295
273.0080039
272.9729651
269.4489556
280.9544791
273.0921983
272.9861682
272.979851
272.9727041
272.979522
272.9827135
272.9772386
272.9832381
272.997554
273.0066568
273.0047643
273.002887
273.0060604
273.0100214
273.0106372
273.0114167
273.0108776
272.9756628
269.3661594
280.97415
273.0906191
272.9833274
272.9776759
272.973951
272.9771911
272.9789698
272.979113
272.9868686
272.9963776
273.0031947
273.0051763
273.0057259
273.0042924
273.0047624
273.0085231
273.0127887
273.0111568
272.9749982
269.252842
280.9172233
273.093269
272.980674
272.9766381
272.9762258
272.972968
272.9760743
272.9849918
272.9925318
272.9922786
272.997086
273.0075023
273.0116604
273.0045029
273.0014525
273.0081923
273.0137388
273.0088421
272.971647
269.1217589
280.8978417
273.1003171
272.9810548
272.9793533
272.9794222
272.9698782
272.9753092
272.9932843
272.9985937
272.9867417
272.9884438
273.0062515
273.0150342
273.0054629
272.9997797
273.007592
273.0128989
273.0058653
272.97033
269.0040924
280.7122276
273.1010856
272.9837095
272.9831759
272.9826294
272.9710848
272.9756605
272.9953862
273.0033545
272.9873017
272.9808085
273.000714
273.0134426
273.0056817
272.9990454
273.0050918
273.0095909
273.0042742
272.9744401
268.9352701
280.5784951
273.0936594
272.9870135
272.9852596
272.9846968
272.9775846
272.9776087
272.9914896
273.0028045
272.9931572
272.9789496
272.9947865
273.0068179
273.0037619
272.9982552
273.0008163
273.0042906
273.0043473
272.9833405
268.9053222
280.18677
273.0754882
272.9900321
272.9864193
272.9859177
272.9869166
272.9844348
272.988405
272.9963536
272.995366
272.9915313
272.991802
272.9970599
272.9989851
272.9974952
272.9972713
272.9993947
273.003963
272.9903202
268.9719125
279.9172497
273.0612139
272.99354
272.9885807
272.9853976
272.9928772
272.9955513
272.9913569
272.9883765
272.9920022
272.9972554
272.9920086
272.9887569
272.9923098
272.9964367
272.9968323
272.9971541
273.0019053
272.9918835
269.0673107
279.3334139
273.0505213
272.9983496
272.993649
272.9842647
272.9932621
273.0064261
272.998251
272.983713
272.9880095
273.0001079
272.9944156
272.9844551
272.9848797
272.9943205
272.9990826
272.9979733
272.9982649
272.9864156
269.2817654
279.0042196
273.0508133
273.0017398
273.0001362
272.9852892
272.9901326
273.0086791
273.0038529
272.9866671
272.9871602
272.9995436
272.9981047
272.985239
272.9786534
272.9896395
273.0008099
273.0000378
272.9945016
272.9785759
269.5009555
278.2310651
273.0490693
273.0018742
273.0032939
272.9910868
272.9889666
273.0021517
273.00513
272.9952652
272.9891441
272.9958877
273.0006233
272.9906218
272.9770344
272.9837246
272.9982951
273.0005883
272.9922422
272.9744425
269.8516832
277.8391152
273.0479625
272.9994554
273.0012777
272.999457
272.9945746
272.9940003
273.0014458
273.0023961
272.9912886
272.9899807
272.9997973
272.9970435
272.9816551
272.9800209
272.991636
272.9973042
272.9923583
272.977228
270.1777811
276.8924225
273.0353277
272.9972122
272.996045
273.0064578
273.0042443
272.9915601
272.9970686
273.0025368
272.9920819
272.9864524
272.9961977
273.0013199
272.9907635
272.9824851
272.9846081
272.9915354
272.9939789
272.9851624
270.6382106
276.4847196
273.0241534
272.9959773
272.993314
273.0076338
273.0095379
272.9964625
272.9944206
272.9976748
272.9932104
272.9874683
272.9913512
273.0002959
272.9988864
272.989447
272.9819897
272.9865467
272.9949222
272.9928046
271.0042046
275.4174036
273.0115564
272.996382
272.9954108
273.0035791
273.0070642
273.0034499
272.9958331
272.9950969
272.9974664
272.9926845
272.9873984
272.9948078
273.0029336
272.9980441
272.9847177
272.9847126
272.9944943
272.9970807
271.5192169
275.079944
273.0088517
272.999012
273.0049156
272.9995109
273.001467
273.0052586
272.9996394
272.9974201
273.0037949
273.0004737
272.9878236
272.9879685
273.0016492
273.0033409
272.9900386
272.9863254
272.9939585
272.9975606
271.8794382
273.9356541
273.0783371
273.0076121
273.1407292
273.0210425
273.1335871
273.0332939
273.1061993
273.0211299
273.0582838
273.0088627
273.0066927
272.9817951
272.993815
272.9886191
272.9818675
272.9772672
272.9882809
272.9929837
272.4059197
269.1209299
280.7732275
271.7043102
282.8986399
274.4279824
283.2975673
275.8916761
281.8855405
275.3808123
279.233354
273.4787574
276.1863855
271.2177136
273.6684407
269.537481
272.379191
269.0721423
272.7286368
270.0532705
274.0389043
283.0061429
273.1419826
272.9925536
272.9918051
272.9910808
272.9890767
272.9998531
273.0081543
273.0009799
273.010767
273.0322299
273.0308595
273.0215573
273.0227017
273.037624
273.0391887
273.022536
273.0076182
272.9585842
267.1873614
283.0517986
273.1424143
273.0000497
272.9987744
272.9814112
272.9853756
273.004751
273.0075923
272.9983695
273.0036319
273.0237469
273.0258523
273.0137299
273.0115592
273.0204919
273.023329
273.0161687
273.0076527
272.9590541
267.1287228
283.056859
273.1428797
273.0028789
272.9995977
272.9798612
272.9899581
273.007341
273.0051481
272.9999157
273.0036362
273.0189757
273.0260856
273.0165345
273.0099146
273.0092717
273.0125332
273.0149436
273.0129633
272.9651063
266.9300503
283.1553015
273.1421014
272.9916154
272.9867159
272.9858919
272.9987964
272.9965689
272.9940043
273.0071731
273.0118195
273.0141822
273.0239395
273.0268948
273.0174455
273.0053284
273.0065546
273.015601
273.0165939
272.969112
266.7824057
283.0963532
273.1441325
272.9824598
272.9772528
272.9945471
273.0028574
272.9850727
272.9874515
273.0164354
273.0198558
273.0072269
273.0159149
273.0322511
273.0260512
273.0085713
273.0065436
273.0159614
273.0159357
272.9688047
266.4734393
283.1572558
273.1548045
272.9814818
272.9787991
273.0024865
272.9997738
272.9740574
272.9884999
273.0250126
273.0265391
272.9978447
272.995118
273.0242452
273.0281492
273.0161617
273.0100022
273.0148118
273.0108985
272.9671184
266.3516752
282.9217502
273.1521847
272.9881264
272.9880787
273.0043596
272.9970939
272.9696248
272.9897175
273.0283559
273.0275448
272.8416234
272.9859952
273.0141466
273.0255257
273.0180834
273.010375
273.0110176
273.0056935
272.9701265
266.1241119
282.8292188
273.1403015
272.9965248
272.9962408
272.9998295
272.9966794
272.9779738
272.9929933
273.0229304
273.0217042
272.2388993
272.9863052
273.0057494
273.019166
273.0140052
273.006861
273.0056214
273.0028614
272.9780558
266.1679872
282.2942832
273.1122789
272.9999426
272.9985144
272.9931809
272.9979561
272.9954194
272.9984931
273.0085948
273.0197203
272.9876208
272.9992103
272.9992385
273.0090179
273.0076535
273.0029857
273.002565
273.0032984
272.9869436
266.1852849
282.0285767
273.0977976
272.9999419
272.9971592
272.9886018
272.9975273
273.0102455
273.0056933
272.9933151
273.0040225
273.0178495
273.0015473
272.9925313
272.9973303
273.0009639
273.0009899
273.0031451
273.0049223
272.9921173
266.449061
281.2201894
273.0848355
272.9984584
272.9977089
272.9882676
272.9968751
273.0171654
273.013834
272.9903535
272.9926972
273.010935
273.0033874
272.9955622
272.9913745
272.9949626
273.001115
273.005478
273.0049317
272.9902763
266.7443678
280.8770739
273.0906453
272.9982194
273.0006975
272.9945933
272.9971675
273.0115076
273.0170196
273.0016711
272.9913975
272.996461
273.0053986
273.0076423
272.9932468
272.9908694
273.0009031
273.0066044
273.001941
272.9831997
267.2025153
279.7678409
273.0807497
272.9986326
273.0021451
273.0051734
273.0008969
272.9969407
273.0120351
273.019032
273.0000227
272.9840106
273.0058956
273.0164944
272.9971377
272.986897
272.997785
273.0048573
272.9980196
272.9770386
267.7512029
279.3485258
273.0734034
273.0011366
273.0008152
273.0113329
273.0076224
272.9872538
273.0042701
273.026173
273.0056855
272.9831596
273.0042719
273.0147944
272.9971595
272.9849453
272.9922085
273.0004986
272.995845
272.9777234
268.3567932
277.974645
273.0453732
273.0039956
272.9974993
273.0103933
273.0137139
272.9913874
272.998535
273.0163173
273.0043789
272.9907585
273.0002408
273.004561
272.9951496
272.9873697
272.9881365
272.994957
272.9958303
272.9850111
269.0994636
277.5562062
273.0289916
273.0032382
272.9992104
273.0056274
273.0096768
273.0039528
272.9992198
272.9985443
272.9990483
272.9993317
272.9947546
272.9920204
272.9940987
272.9944741
272.9889184
272.9899237
272.995545
272.992753
269.746189
276.0444209
273.0101987
272.9987897
273.0075734
273.0018764
272.999802
273.0136816
273.005122
272.988145
272.9973073
273.0071038
272.9914717
272.9840079
272.9952066
273.0027623
272.9936972
272.9866279
272.9926102
272.9967053
270.563828
275.7468496
273.0111483
272.995877
273.0181455
273.0034143
272.9953132
273.0134387
273.0102968
272.9913349
273.0029374
273.0115031
272.9921148
272.9827585
272.9977173
273.0085249
272.9983393
272.9853969
272.988952
272.9962237
271.1784813
274.138922
273.127708
273.0023721
273.2275007
273.0323224
273.2025537
273.0400426
273.1514783
273.0244832
273.0650576
273.0134352
273.0041415
272.9778401
272.9814252
272.9866827
272.9740511
272.970285
272.9750831
272.9896025
272.006234
268.0089347
283.0915537
271.1918867
285.8420049
274.680936
286.0322129
276.5381578
283.6101591
275.8863849
279.6280479
273.5284392
275.3217345
270.7140606
271.7673372
268.6759449
269.9208429
268.427021
270.5383449
270.2301257
272.5895039
287.8778659
273.2810933
272.9975867
272.9893247
273.016069
273.0240868
272.9938379
273.03095
273.0690084
273.0295666
272.998925
273.0357447
273.0664898
273.0403245
273.0084358
273.0266296
273.0382045
273.0234944
272.9512926
263.7934743
288.0082822
273.2971597
273.010252
273.0105998
272.990312
272.9919074
273.0099019
273.0311977
273.0274361
273.0127918
273.0158847
273.0363172
273.0434746
273.0291788
273.0179509
273.024714
273.0265909
273.0123015
272.9449477
263.6076548
288.1532922
273.3085039
273.0150522
273.0194941
272.9821459
272.9852038
273.0233318
273.0233556
272.9978704
273.0142208
273.0450078
273.0344301
273.0211168
273.0255492
273.0353435
273.0252783
273.0177704
273.0087747
272.9518815
263.2427058
288.3738926
273.3064426
273.0043458
273.0049006
272.9936278
273.0079601
273.0253988
273.0047689
272.9867683
273.0346591
273.0730819
273.0280171
273.0013845
273.0233492
273.0454821
273.0231423
273.0109989
273.0102288
272.9653561
262.7848153
288.4888168
273.3010755
272.9922563
272.988088
273.0093373
273.030359
273.0160386
272.9856379
272.9949455
273.0544665
273.0689713
273.0222651
272.9939443
273.0271498
273.0506035
273.0192727
273.0067597
273.0127562
272.978501
262.2534798
288.6280834
273.3027454
272.9864066
272.9844704
273.0153335
273.0324064
272.998426
272.9679972
273.0029622
273.0551928
272.6607225
273.0165162
272.9907074
273.0308467
273.0529909
273.0173996
273.0052776
273.0121377
272.9894322
261.7838374
288.4852104
273.2983715
272.9927038
272.9959622
273.0118934
273.02172
272.9913602
272.9657412
272.9978268
272.7818175
264.860602
272.8861834
272.9860649
273.0296754
273.0536055
273.0170483
273.0048391
273.0085601
272.9949763
261.4301016
288.3550599
273.2857755
273.0063071
273.0118961
273.0029257
273.0093656
273.0032414
272.981983
272.9859227
272.2072564
251.9005307
272.1021918
272.9789274
273.0268869
273.0505039
273.0153883
273.0035859
273.004098
273.0004218
261.2599495
287.7377966
273.2583092
273.0128471
273.0179041
272.9933381
273.0005061
273.0214165
273.0029747
272.9930495
272.9951234
269.4907545
272.9758574
272.993504
273.022915
273.0407614
273.0110295
273.0028398
273.0025422
273.0049752
261.3697651
287.2449494
273.2441167
273.0057323
273.0114325
272.9921746
272.9978647
273.0273024
273.0147184
272.9919749
273.0118492
272.9638678
273.0243178
272.9998255
273.0166435
273.0252376
273.0044394
273.0028703
273.0048016
273.0109879
261.680095
286.1126821
273.2213966
272.9930461
273.0014011
272.9997448
273.0022252
273.0162117
273.0159105
273.0000955
273.0057976
273.0267037
273.0187463
273.0052842
273.0095359
273.0097664
272.9975308
273.0033461
273.0080948
273.0106297
262.3248323
285.3832876
273.2123769
272.9862477
272.994422
273.0117589
273.0106288
272.9956652
273.0054327
273.0143898
273.0136182
273.0106487
273.009312
273.0093311
273.0088859
273.0020273
272.9924404
273.0021016
273.0086916
273.0074565
263.0893493
283.7187603
273.1717289
272.9903271
272.993159
273.0238021
273.0226837
272.9773547
272.9881668
273.0294035
273.0309853
272.9975032
272.9898414
273.0099494
273.0162641
273.0047124
272.9911721
272.9988172
273.0054051
272.9993082
264.1793142
282.798244
273.1372713
273.0018017
272.9965494
273.0213154
273.0310095
272.9796977
272.9801599
273.0346249
273.0411028
272.9891338
272.9709599
273.0045186
273.0261001
273.0102965
272.9914524
272.9936762
272.9998574
272.9947759
265.2314873
280.7682261
273.0777286
273.011116
273.0009565
273.0055453
273.0262226
273.002753
272.9919245
273.0250404
273.0325685
272.9941507
272.9716198
272.9950135
273.0213779
273.0102033
272.993539
272.9908198
272.9954467
272.9919436
266.5796168
279.899978
273.0481925
273.0120041
273.0117491
272.9932261
273.0078315
273.0241337
273.0148048
273.0072114
273.0098799
273.0046675
272.9902577
272.9913873
273.0024085
273.0009594
272.9970484
272.9922916
272.9927484
272.9922448
267.6425425
277.7140541
273.0170959
273.0021263
273.0246323
272.9963238
272.987848
273.0256894
273.029871
272.9946227
272.9871833
273.0128557
273.014992
272.9937707
272.9803752
272.9895318
273.004616
272.9992923
272.9920384
272.9906579
269.0637624
277.0781971
273.0202696
272.9921825
273.0296497
273.0102534
272.9874694
273.0116637
273.0307384
272.9911861
272.9760838
273.0128921
273.0322583
272.9983982
272.9663146
272.9840691
273.0123526
273.0078684
272.9928828
272.9888729
270.0119549
274.7692015
273.2021488
273.004483
273.3730536
273.0900241
273.3727521
273.1046875
273.2734741
273.0689214
273.0835088
273.0214426
273.0495936
272.9794614
272.9337072
272.9540548
272.9738888
272.9983716
272.9765796
272.9914401
271.4374582
267.7360112
285.7415287
272.6109129
290.1423403
278.2014212
290.8959353
281.2261501
287.5627718
279.485368
281.7808599
274.9742467
275.8782487
269.9981791
270.8476235
266.0320486
268.4893235
265.0457029
269.9198795
267.5496286
273.3010095
292.3584451
273.4545588
273.0050033
272.9838994
273.042752
273.0738685
272.9945397
273.0111604
273.0520458
273.0360425
273.0329647
273.0515682
273.0536113
273.033948
273.004126
273.0076187
273.0438716
273.0399571
272.9669926
259.1510522
292.6822729
273.4872238
273.0030637
273.0038189
273.0080213
273.0096015
272.995744
273.0254766
273.057854
273.0485932
273.030506
273.0416028
273.0560465
273.0450803
273.0246813
273.0194365
273.0242984
273.018236
272.9576011
258.8400802
292.9674708
273.5083312
273.0083184
273.0246054
272.9952888
272.9824658
273.0137739
273.0406209
273.0634885
273.0622956
273.0371195