/*--------------------------------*- C++ -*----------------------------------*\
| =========                 |                                                 |
| \\      /  F ield         | OpenFOAM: The Open Source CFD Toolbox           |
|  \\    /   O peration     | Version:  5.x                                   |
|   \\  /    A nd           | Web:      www.OpenFOAM.org                      |
|    \\/     M anipulation  |                                                 |
\*---------------------------------------------------------------------------*/
FoamFile
{
    version     2.0;
    format      ascii;
    class       volVectorField;
    location    "6.4";
    object      U;
}
// * * * * * * * * * * * * * * * * * * * * * * * * * * * * * * * * * * * * * //

dimensions      [0 1 -1 0 0 0 0];

internalField   nonuniform List<vector> 
30538
(
(0.07552185795 0.0003398379131 -0.003664826363)
(0.07262301116 -0.001492000267 0.002692609984)
(0.05190479858 0.0006305521372 -0.005965207763)
(0.05392660368 -0.00327284338 -0.001638687898)
(0.01033570539 -0.002733445642 -0.006141840447)
(0.01090950421 -0.002844321917 0.001887307777)
(-0.02239262724 -0.001763940174 -0.002337301571)
(-0.008896358102 -0.003739346953 -0.002087308531)
(-0.04524161291 -0.002483372651 -0.007194341691)
(-0.04347556589 -0.001958921444 -0.003427859653)
(-0.06624255877 -0.001075314434 -0.007168171638)
(-0.03894413423 -0.003276683753 -0.005491514982)
(-0.04501000169 -0.004250233848 -0.009642237482)
(-0.02069863294 -0.003395522767 -0.003389435486)
(-0.0195498107 -0.0004828448049 -0.006761395545)
(0.00486799779 7.907266114e-05 -0.005870035376)
(0.0005381598914 0.002017946983 -0.009307522687)
(0.00682689896 0.002595949102 -0.0002408828104)
(0.005963165177 0.003085442946 0.001693027488)
(0.0173465885 0.0009647448948 0.004698768117)
(0.07477150656 -9.090229064e-05 -0.004256874376)
(0.07284958102 -0.00462236625 0.002008085763)
(0.05057077012 -0.001536743207 -0.005242063305)
(0.05158981318 -0.009933186194 -0.0004448395496)
(0.01059293163 -0.009471624748 -0.005746757327)
(0.0115921766 -0.008761061354 0.001957895207)
(-0.02304904415 -0.005229295695 -0.001062961655)
(-0.009362877553 -0.00954697375 -0.0009221145467)
(-0.0440026913 -0.008427979374 -0.006829709789)
(-0.04242067982 -0.006374507906 -0.00372127433)
(-0.06721362892 -0.002465920605 -0.006805013672)
(-0.04118264637 -0.005081756492 -0.004618750266)
(-0.04512454651 -0.007442044698 -0.008783342831)
(-0.01804021302 -0.005431182554 -0.003561013419)
(-0.01703096346 0.0001444412462 -0.007041643462)
(0.006551486438 0.0008483494177 -0.005383610276)
(0.002441209839 0.004772264296 -0.008616414019)
(0.007596358331 0.006012421045 -0.0003228730878)
(0.004767694061 0.007856291394 0.0008408000046)
(0.01441039042 0.002889117895 0.004173366175)
(0.07242282557 -0.0002247595676 -0.005158383984)
(0.07158213561 -0.01092307789 0.001174157349)
(0.04812164182 -0.006755926716 -0.005170079281)
(0.04834321539 -0.01876019324 0.0006500034247)
(0.01110696365 -0.01502740355 -0.005442024453)
(0.01388923998 -0.01694397313 0.001581565853)
(-0.02296535663 -0.007110218821 -0.0007908428348)
(-0.01111105688 -0.01488538757 0.0005758637493)
(-0.04305168684 -0.01533381455 -0.006735629451)
(-0.03916036674 -0.0147815514 -0.003966442324)
(-0.06538253493 -0.004513783127 -0.007852306258)
(-0.04240836942 -0.003677318503 -0.003435328975)
(-0.04530551568 -0.002958162598 -0.008285028449)
(-0.0153522224 -0.002715838593 -0.003917043635)
(-0.0150489956 0.00368463048 -0.007868556302)
(0.008045198611 0.002195977504 -0.004223070041)
(0.004326622243 0.005987195626 -0.007358659329)
(0.008991653302 0.004919033484 -0.0005515334284)
(0.003792067867 0.009359182394 -0.001022116093)
(0.009423819061 0.003251404951 0.002913050254)
(0.06717161693 -0.001473398213 -0.005182110112)
(0.06805662768 -0.01823432436 0.001111624134)
(0.04525076806 -0.015449494 -0.004922162736)
(0.04568247066 -0.0280728591 0.001558765164)
(0.01194531669 -0.02102974855 -0.004120672298)
(0.0171288153 -0.02536120027 0.001270104173)
(-0.02163828325 -0.01017619369 -0.0004306460347)
(-0.01511866983 -0.01862149826 0.00225151381)
(-0.04401346005 -0.02049469475 -0.004020789952)
(-0.03467439538 -0.02217382806 -0.00308583648)
(-0.05942827093 -0.007006570139 -0.007210910243)
(-0.04008294557 -0.00124569241 -0.00254223077)
(-0.04445704921 0.004136238288 -0.006807518968)
(-0.01336238263 0.002663172887 -0.004063296305)
(-0.01359671493 0.009386193909 -0.008051040742)
(0.008190901009 0.006501130589 -0.003030991141)
(0.00434199496 0.008174371728 -0.005704158011)
(0.009993718802 0.00320251733 -0.0005233831709)
(0.003773667357 0.008657273747 -0.00334984636)
(0.005008267519 0.002688590285 0.001370406226)
(0.0587365799 -0.0007903590459 -0.004326730273)
(0.06150010097 -0.02543309082 0.002664625953)
(0.04142804329 -0.02228655495 -0.004648070124)
(0.04428631948 -0.03735438223 0.002617609453)
(0.01313471646 -0.02470629476 -0.003086383853)
(0.02148924841 -0.03456755079 0.0009949516891)
(-0.01823938785 -0.01587544381 -0.002125824249)
(-0.01832834731 -0.02434247185 0.003173766581)
(-0.04564047434 -0.02162079036 -0.002915516723)
(-0.0295526597 -0.02739408929 -0.002010288213)
(-0.05069477728 -0.01207240131 -0.009629137817)
(-0.03455035825 -0.005589057945 -0.002146469759)
(-0.04257627385 0.00511987902 -0.007421492529)
(-0.01165802089 0.003859461658 -0.004033615339)
(-0.01241494861 0.0147697941 -0.009064867268)
(0.007257192246 0.01225475322 -0.002406735507)
(0.001906841675 0.0127108438 -0.004868399145)
(0.009339256628 0.002805522994 -0.0007507170488)
(0.003691525008 0.007310108371 -0.005736787269)
(0.000860268766 0.0003664563253 -0.0003958383052)
(0.04876931936 0.0008876912378 -0.002355699914)
(0.05278360675 -0.02948123563 0.005187854427)
(0.03700445627 -0.02684464158 -0.002716363672)
(0.04385273329 -0.04456471351 0.004368650796)
(0.01396688692 -0.02831877698 -0.001040804205)
(0.02331012269 -0.043272039 0.001847030671)
(-0.01445337089 -0.02771754941 -0.001993685809)
(-0.01908625308 -0.03346060912 0.00422296084)
(-0.04624723829 -0.01971294919 0.0002760405538)
(-0.02781728354 -0.02792486099 -0.0001471388778)
(-0.04411341902 -0.0164350205 -0.008330555008)
(-0.02797051631 -0.01530892231 -0.001706845367)
(-0.03779892468 -4.082304364e-05 -0.005747203255)
(-0.006584706001 0.001160832893 -0.003698929345)
(-0.007683243257 0.0179460745 -0.009275927896)
(0.0067608297 0.01712500672 -0.003184574029)
(-0.002353373563 0.01786522277 -0.004933996755)
(0.006155178234 0.004298009917 -0.0009611334931)
(0.002296604541 0.00588132255 -0.006877620568)
(-0.001009368167 -0.002895579737 -0.001041648312)
(0.03857335194 0.004394946348 -0.001653992206)
(0.04189000259 -0.03062565918 0.006812676654)
(0.03096892737 -0.02492641392 -0.0009043170201)
(0.04310513976 -0.04878641301 0.006049207842)
(0.01406467592 -0.02957566595 -0.0001923491874)
(0.02189564824 -0.0500250267 0.003210202988)
(-0.0113267124 -0.03939207005 -0.00218068568)
(-0.01259129887 -0.04545307008 0.004326736389)
(-0.04178523119 -0.01887087752 -0.0005215814866)
(-0.02713010444 -0.02755238114 0.001238926305)
(-0.04182340051 -0.02027046883 -0.009492264667)
(-0.02299473714 -0.02603736337 -0.0003139936389)
(-0.03096095594 -0.006912410308 -0.006182411505)
(0.0009793715837 -0.003477956585 -0.002738761305)
(-0.001124777517 0.0171069392 -0.01025465009)
(0.007168525466 0.01650391457 -0.004842241913)
(-0.007101543797 0.02036711871 -0.006405853594)
(0.0008394867211 0.006981459887 -0.001406022703)
(-0.001233377264 0.006811275828 -0.006394941937)
(-0.001789557426 -0.004597220609 -0.0006573565293)
(0.03023271695 0.006860057392 -0.002114799947)
(0.03204061811 -0.03006036446 0.006162888162)
(0.02447737136 -0.02003268068 0.0009402429359)
(0.04044837223 -0.05060257483 0.007251578464)
(0.0131626308 -0.03163412414 0.001001454614)
(0.01635844759 -0.0540662261 0.005444770838)
(-0.01123314743 -0.04609373262 0.001381470957)
(-0.004512142152 -0.05645145292 0.00549555259)
(-0.03367587052 -0.02276266438 0.0007227522008)
(-0.02870612362 -0.02972880665 0.003394147172)
(-0.04304483184 -0.018718093 -0.004315159239)
(-0.01859852278 -0.02930683765 0.002244516777)
(-0.02186545563 -0.007544482129 -0.003506295842)
(0.01029824226 -0.00579349781 -0.00141802658)
(0.006412112271 0.0130241049 -0.009110595426)
(0.00905733823 0.009863629729 -0.006081243348)
(-0.009081188004 0.01942841671 -0.00758035321)
(-0.003428197932 0.009183656269 -0.00179370887)
(-0.005742712262 0.009995538654 -0.0050216298)
(-0.003057007037 -0.00469072793 0.0006128451517)
(0.02218227204 0.008677884276 -0.004270036049)
(0.02287127759 -0.02950475894 0.003700735579)
(0.01675984993 -0.01250554088 0.001109073712)
(0.03479866495 -0.05050228318 0.007491759745)
(0.01172278111 -0.0319365959 0.0005937649622)
(0.01165881703 -0.05540382372 0.006737862593)
(-0.01302354154 -0.04164188689 0.004150463602)
(0.003991829287 -0.06149712005 0.006609734722)
(-0.02298513467 -0.02889415973 -0.001512031437)
(-0.02420046781 -0.03490079468 0.003916050624)
(-0.04153665494 -0.01227058191 -0.002239057809)
(-0.01520660274 -0.02305343775 0.004931868332)
(-0.01434785704 0.0004923996438 -0.003840214054)
(0.01545126033 -0.004721908352 -0.0002215939405)
(0.00990455207 0.009201311749 -0.007802810743)
(0.01174195516 0.0009144450426 -0.005650559285)
(-0.007621641878 0.01710153849 -0.008374685442)
(-0.005829842404 0.009610998525 -0.002473139729)
(-0.01090424368 0.01255342286 -0.003966341133)
(-0.005971234036 -0.004019462628 0.00165875244)
(0.01550759874 0.008515839962 -0.005824775042)
(0.01712635999 -0.03102642413 0.0009538181618)
(0.009918524946 -0.00814730034 0.000805818634)
(0.0266158286 -0.05053743635 0.007611915784)
(0.009799138703 -0.03380224209 0.001119767355)
(0.009485771236 -0.05815829441 0.007777827626)
(-0.0155633849 -0.03441898149 0.007911955146)
(0.004626783029 -0.06134271961 0.009243467856)
(-0.014954883 -0.03657136682 -8.53030202e-05)
(-0.01688341999 -0.04198800939 0.004564882175)
(-0.03471763681 -0.00709476884 0.002749609614)
(-0.009683310461 -0.01489788614 0.00642715415)
(-0.008925202109 0.008439157751 -0.002124916801)
(0.01641659753 -0.004633852632 0.0005023704859)
(0.01040264547 0.006034741038 -0.004657034808)
(0.01467516629 -0.005362209008 -0.003234463751)
(-0.00292137363 0.01452749097 -0.007787755173)
(-0.006691566681 0.007461314012 -0.002828887809)
(-0.01528542052 0.01088084891 -0.00373491614)
(-0.009485138097 -0.004007031391 0.002285983785)
(0.00629767148 0.008610656751 -0.006118010561)
(0.01118144363 -0.03342092374 0.0001134222377)
(0.003224573864 -0.006198002856 -0.0003697825638)
(0.01659924751 -0.04892788182 0.007540431908)
(0.006426364894 -0.03185895671 0.001172343006)
(0.01123740761 -0.05952289739 0.007395093366)
(-0.01532839115 -0.0261317193 0.008478039783)
(0.002628512596 -0.0547626777 0.01060207423)
(-0.009400682327 -0.03442657261 -0.0001889457029)
(-0.003308882523 -0.04395108403 0.004136784808)
(-0.02244785094 -0.0009848509765 0.001647936022)
(-0.00428945832 -0.008014298581 0.006516260106)
(-0.007110136791 0.01394004117 -0.002782260735)
(0.01370744079 -0.004659534178 0.001010460982)
(0.009429677121 0.006624322698 -0.002454304237)
(0.01771371539 -0.005598920143 -0.0007276451936)
(0.001497651248 0.01446048638 -0.006745269803)
(-0.008432915902 0.002946988047 -0.00338242575)
(-0.01894267398 0.006100730848 -0.00313758078)
(-0.01121908883 -0.0056729269 0.002057587072)
(-0.001982856051 0.009147853043 -0.004350185319)
(0.006739380058 -0.0366313053 0.001301519821)
(-0.0007663214421 -0.007498013697 -0.0004784346487)
(0.008408925934 -0.04815116186 0.007978655724)
(0.002421803539 -0.02826460886 0.003124366769)
(0.01353597114 -0.06171519473 0.007806931116)
(-0.0122893367 -0.02473023394 0.008470758007)
(-0.001074360709 -0.04968540007 0.01157480298)
(-0.007427745957 -0.02777171848 0.003283128952)
(0.006795446989 -0.04518361772 0.004758828097)
(-0.009378691493 -0.004100148296 0.002551886169)
(0.0007897081385 -0.01016671018 0.006271162255)
(-0.006533934423 0.01325696214 -0.0001959593358)
(0.01118461552 -0.006403522965 0.002123868749)
(0.009771915681 0.008621239969 -0.0004856548165)
(0.02017455467 -0.003568238259 0.000868843821)
(0.003143179664 0.01348805689 -0.005963109671)
(-0.0125981295 -0.003247454622 -0.002642869469)
(-0.0213241987 0.001530024786 -0.001898953627)
(-0.01011519477 -0.007943796701 0.002561013845)
(-0.01306147318 0.01140179791 -0.002087168049)
(-0.0005179221853 -0.03666213376 0.003700347318)
(-0.00462165581 -0.005830324332 -0.0004425614423)
(0.001804761025 -0.04445983522 0.007469393751)
(-0.00305006113 -0.01771417866 0.00433599458)
(0.013748332 -0.0564166263 0.007863457209)
(-0.006916349925 -0.02106104011 0.006048418164)
(0.0006418786071 -0.04210942953 0.01010608412)
(-0.006334864739 -0.01487158369 0.004399383158)
(0.01344680591 -0.04068219782 0.005126031037)
(0.002246190322 -0.005878002458 0.000411468684)
(0.007879509905 -0.01373233704 0.005196762467)
(-0.004414979384 0.01442961113 0.0008368943045)
(0.01035788348 -0.0040112609 0.003293619477)
(0.0114392094 0.01283180166 -0.0005014529086)
(0.02118062247 -0.002302755642 -8.538675992e-05)
(0.001669094381 0.01017158158 -0.005962290037)
(-0.01686458552 -0.007676659656 -0.001898301857)
(-0.02221526028 0.002041239834 0.000650612993)
(-0.006961041232 -0.007603878101 0.00319273697)
(-0.01976139076 0.01515835991 -0.0001796709963)
(-0.00535929935 -0.0334839146 0.005585869009)
(-0.006010364772 -0.001427125421 0.0004235752812)
(-0.000135519405 -0.0415428642 0.006713941209)
(-0.005924728632 -0.00651928458 0.006198186396)
(0.01118688252 -0.04838931523 0.009278673622)
(-0.002261419657 -0.01550931208 0.00538779615)
(0.003459134486 -0.03789236996 0.008858135678)
(-0.006533157007 -0.007173114889 0.006658361715)
(0.01319588421 -0.0369136624 0.006561536741)
(0.009621433981 -0.008871785877 0.001321920006)
(0.01505509941 -0.01873339394 0.004465157254)
(0.0003372023494 0.01380016302 0.002974241376)
(0.009991482198 -0.001432009531 0.004602850171)
(0.01095856659 0.01331205476 -0.0003229991655)
(0.01837140544 -0.00747453743 -0.001232319439)
(-0.0007335866849 0.002911669548 -0.006015907873)
(-0.01829515151 -0.01058866029 -0.0002965841788)
(-0.02119775475 0.007804920602 0.002598574825)
(-0.006468746237 -0.004392378543 0.004253746112)
(-0.025884766 0.01977271625 0.0002609465594)
(-0.01212571901 -0.02539971205 0.005703447095)
(-0.01007851859 0.007741617963 0.0004831794814)
(-0.001947353612 -0.03494850459 0.004696000971)
(-0.007787534688 0.00511584757 0.005734579142)
(0.007395428454 -0.03431797432 0.009396492596)
(0.0004133116738 -0.001420401958 0.004293865426)
(0.006685510568 -0.02848328085 0.006447864722)
(-0.005744977085 0.00324169233 0.00596267897)
(0.01230672827 -0.02681246519 0.006841833926)
(0.01506095539 -0.003000312771 0.0008710245771)
(0.02382591087 -0.01803462129 0.002513727945)
(0.007810065019 0.01504474223 0.001969295197)
(0.009947480735 7.980968815e-05 0.004486065974)
(0.007155891362 0.01205404763 3.10994888e-05)
(0.01389075995 -0.01424180491 -0.001968527395)
(-0.0005566515903 -0.002894518012 -0.004995600463)
(-0.01331528355 -0.009600553663 0.0002900102936)
(-0.01771859344 0.01680507377 0.003266126119)
(-0.009699527538 0.0002189889558 0.003615938005)
(-0.02354069872 0.02471214363 9.78502973e-05)
(-0.01376724236 -0.01791435288 0.004488424691)
(-0.01253841394 0.01842579151 0.0007521884855)
(-0.002169469674 -0.03059399954 0.004423672173)
(-0.005386116226 0.01263743672 0.005838687667)
(0.006572672171 -0.02344694388 0.009529569039)
(0.001775110483 0.01276661179 0.004562541692)
(0.006912191353 -0.020441537 0.005386582675)
(-0.0054511376 0.01263020556 0.005764953745)
(0.008847015648 -0.01702680547 0.007736312287)
(0.01578550936 0.00473960754 0.002555427302)
(0.02773552697 -0.01774111143 0.001588461745)
(0.01314448002 0.01081817342 0.000781229334)
(0.007832387535 -0.005859333701 0.003955231962)
(0.0008540695773 0.007342826489 0.00127676033)
(0.007830417836 -0.01936989707 8.644648907e-05)
(0.002546789723 -0.004555893213 -0.003015291926)
(-0.004282823779 -0.007364439929 0.0003765590431)
(-0.01411604512 0.02203883858 0.000295969468)
(-0.0188579113 0.002318890794 0.001808632736)
(-0.02082850156 0.02813407902 -0.0003948006469)
(-0.01649728724 -0.01057783691 0.002335255932)
(-0.01881478621 0.02942649094 0.0002400294096)
(-0.006201469695 -0.01827673428 0.0045035181)
(-0.00266464902 0.02213432524 0.004986705215)
(0.007491076983 -0.01283670384 0.006630337183)
(0.002466928355 0.02676744927 0.002967319827)
(0.006749521158 -0.007651119713 0.002806407398)
(-0.003413656861 0.02525912645 0.003752367384)
(0.006798319553 -0.003043426064 0.006829355505)
(0.01450565257 0.01671520341 0.003145921241)
(0.02808739988 -0.01419556789 0.0001023620646)
(0.0162220696 0.006633676436 -0.001633672259)
(0.007466578695 -0.01354852726 0.001901642426)
(-0.00237700378 0.003567043481 0.002388757816)
(0.00550327725 -0.0190628898 0.002145661831)
(0.00786740534 -0.002699913505 -0.0008528836702)
(0.005545701196 -0.008353194211 -0.001528109853)
(-0.01071379497 0.01787200639 -0.003749092503)
(-0.02732661773 -0.0009006820921 -0.001648145922)
(-0.01084789056 0.02996329919 -0.0002939101826)
(-0.01283257002 -0.01027980211 0.001045872283)
(-0.01777175152 0.03812222273 0.0006346833611)
(-0.00743119937 -0.006857476286 0.00578026102)
(-0.001460513623 0.0341591869 0.005453548767)
(0.009829700297 -0.005946063698 0.005760865406)
(0.005354372805 0.0356390727 0.002033676204)
(0.005955214987 0.0008020247706 0.001688105946)
(-0.002257303111 0.03325695273 0.002755321195)
(0.002860789656 0.004790124561 0.0065721233)
(0.007868791834 0.02504511286 0.004578889931)
(0.02059429423 -0.01177105361 0.0009352334173)
(0.01362396069 0.002543284137 -0.002529384355)
(0.005636361957 -0.02026168125 0.0009684010698)
(-0.003055803855 0.0006743239044 0.002795961554)
(0.003411323024 -0.01772405276 0.003950275171)
(0.01004693112 -0.001562118454 0.0003967783751)
(0.01028755337 -0.01599481832 -0.002507787895)
(-0.008658198551 0.003908924697 -0.00743280442)
(-0.03127526175 -0.008713183654 -0.003618026341)
(-0.006722962339 0.02876244024 -7.099995704e-05)
(-0.01086299498 -0.01195010369 -0.0001934172782)
(-0.01637970579 0.04359156754 0.0002247399663)
(-0.009217998124 0.004999262522 0.005402615006)
(-0.002026882161 0.04862220274 0.004089836092)
(0.008512141779 0.008824574585 0.002234992129)
(0.007239419297 0.04183799628 -0.0001793039446)
(0.005238211149 0.003816834219 -0.0007912465325)
(-0.0005100075936 0.03640972065 0.0008153834132)
(0.001099416108 0.006191752958 0.003944440862)
(0.002827575669 0.03098344435 0.003583844183)
(0.01215424417 -0.00533027569 0.000700273754)
(0.01019386216 0.005208822991 -0.00229730134)
(0.006083718168 -0.02009918681 -0.0008130995936)
(-0.0006105647787 0.0001988639842 0.001946096008)
(0.003888910675 -0.01668443051 0.003226134653)
(0.009159621065 -0.003290073875 0.0006402027757)
(0.009494707291 -0.02567624607 -0.002888110643)
(-0.005354448722 -0.01224891428 -0.006792887305)
(-0.02425466402 -0.0174185972 -0.004153340516)
(0.001249350319 0.02536671053 0.0002678703977)
(-0.002141720909 -0.01738067673 1.132474819e-05)
(-0.00552410618 0.04416893459 0.0002209666451)
(-0.003739206813 0.01530568191 0.002717903311)
(0.001334244566 0.06312452867 0.00237634945)
(0.005204200497 0.01671780888 0.001317904861)
(0.001676573729 0.04394311966 -0.0001056881543)
(0.002051074892 0.003340586437 0.0003161606544)
(-0.0007726965413 0.03301376001 0.000512906228)
(-0.001117712439 0.004422094054 0.002272075877)
(-0.0003163080897 0.03254503118 0.002061947437)
(0.002467329551 0.0005933190037 0.0006851590646)
(0.003274143697 0.01210345277 -0.000843394214)
(0.002235957874 -0.01827534251 -0.0002609049106)
(-0.0005569022794 0.0007212312673 0.0007170059211)
(0.0008761618603 -0.01637523307 0.001818658732)
(0.003596199683 -0.005984283828 0.000466514469)
(0.00378811493 -0.03494009737 -0.001164656508)
(-0.002890128946 -0.02520751992 -0.003569058463)
(-0.01074028909 -0.02382697003 -0.001621539533)
(0.07499816519 -0.0008164806992 -0.01304338861)
(0.06920651579 -0.00282133219 0.005354629276)
(0.04617082798 0.001978174606 -0.01440635161)
(0.05371877452 -0.001047761489 -0.001043273492)
(0.01505364791 -0.002006335252 -0.01820997859)
(0.01599522084 -0.002722950235 0.0006042182471)
(-0.02778567801 0.0006482426489 -0.008423397142)
(-0.0153650996 -0.001526774361 -0.004908279931)
(-0.04701551656 -0.001797094278 -0.01934247301)
(-0.04328490354 -0.002535053611 -0.01440286396)
(-0.06905478131 -0.0004437352176 -0.01355243048)
(-0.042120386 -0.001630060849 -0.01573021727)
(-0.0422364624 -0.002663441011 -0.01833627212)
(-0.01678597254 -0.003767430651 -0.01634674814)
(-0.02281809293 -0.001037813616 -0.01172997116)
(0.00139471606 0.0009444688688 -0.01888754888)
(0.008187208983 0.003289690505 -0.01582638287)
(0.02144532899 0.002394978716 -0.01200158881)
(0.01275461263 0.001404843739 0.005283010053)
(0.008344177169 -7.475781224e-05 0.001755077137)
(0.07247507982 -0.002967363282 -0.0133451335)
(0.07114089745 -0.007549065832 0.005712502614)
(0.04739488475 -7.120904653e-05 -0.01308326986)
(0.05090094252 -0.005644379406 0.001847873609)
(0.01387252917 -0.008204300634 -0.01770840415)
(0.01786296105 -0.009379269206 0.0007636716036)
(-0.0269588145 -0.002318699601 -0.005861313053)
(-0.01706410612 -0.004505807377 -0.002288634086)
(-0.04774390954 -0.007586110107 -0.01855256987)
(-0.04228876 -0.007435066256 -0.0152519495)
(-0.06845683788 -0.003851745001 -0.01443338577)
(-0.04370302635 -0.001207853272 -0.01403121314)
(-0.04377073909 -0.00495209609 -0.01687831865)
(-0.01564758727 -0.006505521369 -0.01700047647)
(-0.01947921575 -0.002009342329 -0.01361182457)
(0.004428476493 0.003885451217 -0.0191603362)
(0.00922904539 0.008420461354 -0.0148168851)
(0.02012807814 0.005340243444 -0.01184026864)
(0.01105072468 0.002621061879 0.003977188013)
(0.007297331522 -0.0005520517208 0.0007492689791)
(0.06774667019 -0.001973918135 -0.01389849344)
(0.07114651481 -0.01263165713 0.005474446832)
(0.04752764176 -0.006194667837 -0.01324323295)
(0.04793667428 -0.01494190834 0.003552272611)
(0.01244296039 -0.01197605517 -0.01610492793)
(0.02012751903 -0.01825641867 0.00151369361)
(-0.02435863815 -0.005923058947 -0.004197932913)
(-0.01905705381 -0.008872192966 0.0009986945958)
(-0.04912774002 -0.01001821105 -0.01517682012)
(-0.04057448562 -0.01359537591 -0.01405720343)
(-0.06473216408 -0.005319445308 -0.01470932967)
(-0.0428791173 0.0002350542394 -0.01165980701)
(-0.04601169591 0.0007733064037 -0.01385041614)
(-0.01472931555 -0.003702165282 -0.01685542549)
(-0.01548405647 0.001739755829 -0.01501264478)
(0.008741059092 0.006625993908 -0.01844542537)
(0.009238614541 0.01149345609 -0.01276966127)
(0.0173155462 0.004512648742 -0.01169294955)
(0.008673839069 0.001383347424 0.0007925076179)
(0.006564578438 -0.002098759507 -0.00155553735)
(0.06235396155 0.0001315303634 -0.0137786)
(0.06801920534 -0.0153935549 0.006144981199)
(0.04590397592 -0.01450326936 -0.01430505756)
(0.04672380315 -0.02429210058 0.00372217567)
(0.01162403307 -0.0165812333 -0.01316405087)
(0.02207379765 -0.02646161435 0.002666033434)
(-0.02036317645 -0.0127295518 -0.005488738785)
(-0.01991501061 -0.01367438434 0.002419051136)
(-0.05115416553 -0.01323493411 -0.01066321628)
(-0.0388699214 -0.01847830789 -0.01189835609)
(-0.05876810649 -0.01039769767 -0.01758799338)
(-0.03939357937 0.001214305154 -0.01158589565)
(-0.04656524941 0.00580158855 -0.01236906191)
(-0.01496888432 0.002444743692 -0.01635877132)
(-0.01218767094 0.007095540474 -0.01630380077)
(0.01132248969 0.009972763803 -0.01753679509)
(0.007730724602 0.01288822394 -0.01036757367)
(0.01293626507 0.002824469403 -0.01112558812)
(0.006519052875 -0.0002419260168 -0.002854246075)
(0.0073736543 -0.003595926289 -0.004296279921)
(0.05714092078 0.004597625426 -0.01154365173)
(0.06072025674 -0.01771347006 0.009367675088)
(0.04140704345 -0.018135729 -0.01370816595)
(0.0463487324 -0.03198569605 0.005289243599)
(0.01101987966 -0.01889019257 -0.009070498722)
(0.02278058277 -0.03346995981 0.004842127398)
(-0.01535159813 -0.01886135918 -0.007980223646)
(-0.01937839372 -0.02059491366 0.004437806047)
(-0.05260244482 -0.01347564339 -0.003005214615)
(-0.03847142134 -0.02183580135 -0.006067330071)
(-0.0509129494 -0.01421743896 -0.01803967523)
(-0.03143113722 -0.00401336699 -0.01172336002)
(-0.04517394638 0.007142558943 -0.01030270621)
(-0.01380947141 0.004560549269 -0.0149022462)
(-0.01016724881 0.01243522898 -0.01678723025)
(0.0128467171 0.01195733372 -0.01721989653)
(0.00418363614 0.01416863297 -0.009090626568)
(0.007988018521 0.001945729114 -0.01098889489)
(0.004320894511 0.0007056025258 -0.006533588955)
(0.008789749695 -0.004216022643 -0.007207945479)
(0.05318232584 0.005982533222 -0.007854307897)
(0.05198213406 -0.0216314682 0.01452823658)
(0.03597638978 -0.01976385484 -0.009987675287)
(0.04605105927 -0.03803127367 0.008871795867)
(0.01067978068 -0.02285641525 -0.004707845036)
(0.02203280594 -0.03908682987 0.007125818279)
(-0.01128130923 -0.02781862944 -0.01035787893)
(-0.01606972877 -0.03129126451 0.004399542486)
(-0.05210930915 -0.01517408885 0.0003379209717)
(-0.0392908897 -0.02176797944 -0.002856945141)
(-0.0462585547 -0.01617529775 -0.02273084228)
(-0.02432385721 -0.01185358788 -0.01406423164)
(-0.04055187133 0.002304538636 -0.01159280287)
(-0.01125319682 0.003609579745 -0.01447506387)
(-0.006957132855 0.01567158528 -0.01800786527)
(0.01254312243 0.01243677373 -0.01925418251)
(0.0006611928149 0.01490148827 -0.01020155588)
(0.003379313171 0.002997530369 -0.01169130091)
(0.002349342214 0.004649465768 -0.008739111404)
(0.00935390796 -0.003421330798 -0.008370900634)
(0.04608590605 0.004869095397 -0.006584202441)
(0.04258711545 -0.02874741326 0.01728909212)
(0.030017441 -0.0180313738 -0.004656996807)
(0.04402441042 -0.04323799638 0.0139844612)
(0.01036719696 -0.02571258161 -0.00146603745)
(0.0192328685 -0.04321130076 0.01091812229)
(-0.009846969652 -0.03297279719 -0.007351384381)
(-0.01039643938 -0.04305349116 0.006663442463)
(-0.04594962775 -0.01800319389 0.003815721862)
(-0.03909516076 -0.0208346742 0.002089684611)
(-0.04396364895 -0.01259435781 -0.01641466415)
(-0.01840094591 -0.01853327439 -0.01013018416)
(-0.03428632896 -0.002629399679 -0.008507224155)
(-0.00441517713 0.0008338282542 -0.01234254777)
(-0.003937952255 0.01743446554 -0.01782655273)
(0.01228461588 0.01096941178 -0.02182235216)
(-0.002477956656 0.01531116997 -0.01278197324)
(0.0007140733172 0.005376635335 -0.01273705458)
(-6.367001738e-05 0.01033039106 -0.008526679395)
(0.007448024693 -0.001481901541 -0.007497659667)
(0.03621087275 0.001875762797 -0.008360799505)
(0.03585088506 -0.03595996313 0.0157318145)
(0.02597977136 -0.01626406278 0.0002090692357)
(0.04050766791 -0.04778419492 0.01789892347)
(0.01080717281 -0.0301816157 -4.03755185e-05)
(0.0168723784 -0.04740451307 0.01398386898)
(-0.0111871251 -0.03410871354 -0.0001900396415)
(-0.005415739761 -0.05215804352 0.009072122357)
(-0.03648643939 -0.02462115301 -0.0003607113481)
(-0.03539459745 -0.02465359712 0.00199751419)
(-0.04464394709 -0.004887049414 -0.01674116717)
(-0.01735200207 -0.01934976074 -0.005316120258)
(-0.02686532398 -0.003067666847 -0.008212065891)
(0.002847502611 -0.001024372904 -0.01109195354)
(0.0001979995215 0.01771068618 -0.01755088974)
(0.0110282293 0.008344681932 -0.02381978086)
(-0.003279581363 0.01570379226 -0.01507784742)
(-0.0001498711821 0.007161806024 -0.01389421204)
(-0.0023611549 0.01463784711 -0.006737175472)
(0.002663238422 -0.0002910961797 -0.005312828503)
(0.0218604429 0.00160474171 -0.01288068617)
(0.02979082875 -0.03942632635 0.01076442785)
(0.0218709956 -0.01282111736 0.001642979645)
(0.03408605414 -0.0497804689 0.01980448709)
(0.01075545655 -0.03176565656 -0.0003175999863)
(0.01643100692 -0.05101028265 0.01644416338)
(-0.01323454563 -0.02929494598 0.0103917354)
(-0.003599170652 -0.05440536856 0.01572869714)
(-0.02660009928 -0.03043021504 0.001196644988)
(-0.02510279458 -0.03271076987 0.004282938128)
(-0.04022090299 0.001191990469 0.001055243429)
(-0.01718402611 -0.01513525774 0.003678061062)
(-0.02131421363 0.003107152869 -0.001923125053)
(0.01018899759 -0.001084576809 -0.008732776034)
(0.002678078224 0.01768800616 -0.01392783169)
(0.01088299603 0.006320312047 -0.0216941474)
(-0.003306208565 0.01675475606 -0.01522230743)
(-2.467235229e-05 0.007619807481 -0.01427583315)
(-0.005202136908 0.01504898898 -0.005117386412)
(-0.003093031885 -0.0008371669417 -0.002991799876)
(0.009316675193 0.004994216997 -0.01585970085)
(0.02571543515 -0.03786653745 0.006037780221)
(0.01886672042 -0.01099155448 0.0006011187284)
(0.02701544139 -0.05043491862 0.01999207348)
(0.01006593642 -0.03273854668 0.0002382765565)
(0.01858658062 -0.0569462224 0.01655455809)
(-0.01362370037 -0.02623743741 0.01714229083)
(-0.006108961369 -0.05376516423 0.02154743345)
(-0.0212294151 -0.03406585925 -0.0002352461844)
(-0.01301174986 -0.04160491627 0.002763551823)
(-0.0322414534 0.0003247531153 0.002373970808)
(-0.01608514084 -0.01192850645 0.007073190992)
(-0.0169179099 0.01040242594 -0.002190106902)
(0.01306667083 -0.002355742258 -0.008219922054)
(0.005427306775 0.01620555673 -0.01033856991)
(0.01039273867 0.003946810211 -0.0170892065)
(-0.002366576104 0.01763345831 -0.01320533594)
(-0.001342934179 0.005686558658 -0.01403641492)
(-0.008232591193 0.01245994286 -0.003840801107)
(-0.00774863413 -0.003262621991 -0.00186968035)
(-0.001493913117 0.01143141974 -0.01482932264)
(0.01861652694 -0.03277973883 0.004998841929)
(0.01321526256 -0.008656833931 -0.002045175919)
(0.01863787821 -0.04820383049 0.01965850706)
(0.006264042704 -0.02806425933 0.002186534446)
(0.02102240022 -0.05950954698 0.01651932132)
(-0.01104176149 -0.02509215764 0.01940087815)
(-0.009002752073 -0.05034229527 0.02654831369)
(-0.01810493479 -0.02803087719 0.005990318357)
(-0.0007689811443 -0.04359192642 0.004367476449)
(-0.01925724547 -0.001350372507 0.007780442619)
(-0.01015616188 -0.008357593133 0.0100752644)
(-0.01453313031 0.01755959935 0.002441240815)
(0.01419546056 -0.001652884023 -0.005189204305)
(0.007126809699 0.01453989878 -0.005192061451)
(0.01189931071 0.002147269799 -0.01122872891)