/*--------------------------------*- C++ -*----------------------------------*\
| =========                 |                                                 |
| \\      /  F ield         | OpenFOAM: The Open Source CFD Toolbox           |
|  \\    /   O peration     | Version:  5.x                                   |
|   \\  /    A nd           | Web:      www.OpenFOAM.org                      |
|    \\/     M anipulation  |                                                 |
\*---------------------------------------------------------------------------*/
FoamFile
{
    version     2.0;
    format      ascii;
    class       volScalarField;
    location    "4";
    object      p;
}
// * * * * * * * * * * * * * * * * * * * * * * * * * * * * * * * * * * * * * //

dimensions      [1 -1 -2 0 0 0 0];

internalField   nonuniform List<scalar> 
30538
(
101288.5186
101295.7256
101294.4447
101312.1731
101304.7181
101325.947
101326.9857
101329.05
101324.0398
101329.207
101320.0559
101317.6621
101302.795
101299.2704
101307.6503
101313.9631
101314.0202
101307.9157
101305.2198
101301.234
101292.9962
101301.9783
101292.3112
101310.2255
101306.089
101325.443
101325.6288
101329.6484
101327.426
101331.2886
101317.9841
101315.9411
101305.6024
101304.0695
101308.4513
101309.632
101309.4996
101306.9195
101306.6713
101302.1491
101300.466
101311.3423
101291.6609
101309.7114
101308.542
101325.0521
101323.724
101330.7604
101332.7275
101333.975
101314.8783
101312.9459
101308.9645
101310.1207
101309.4921
101303.8069
101303.8628
101305.9532
101309.1836
101303.6409
101306.935
101319.1644
101293.8967
101311.3178
101310.9481
101325.95
101323.4153
101331.9883
101336.6428
101335.9342
101312.674
101310.2365
101311.1782
101314.4238
101310.2234
101299.5206
101299.7437
101305.3335
101311.1652
101304.789
101306.9305
101319.3624
101298.1263
101313.1527
101311.9471
101327.8572
101326.3153
101332.9035
101336.4346
101336.0842
101313.7583
101310.3616
101311.8228
101315.5353
101310.1882
101298.2967
101298.5062
101304.5771
101310.6171
101304.5017
101299.8127
101312.0666
101302.7569
101314.2267
101310.7551
101329.3164
101331.5694
101334.3466
101331.9923
101333.9432
101317.8668
101314.0849
101311.7047
101313.1162
101308.8825
101300.0701
101300.1817
101303.2059
101306.8607
101302.4435
101291.8676
101303.3173
101306.8981
101314.3919
101307.9445
101328.4502
101336.6509
101336.3016
101325.8773
101329.4455
101322.6086
101319.7471
101311.2223
101307.8701
101305.7249
101302.9342
101303.525
101301.2878
101300.6922
101298.8622
101288.4081
101298.1992
101308.5001
101313.393
101303.9626
101324.4545
101338.4887
101337.5071
101320.5604
101323.2307
101324.3435
101324.5554
101310.2306
101301.107
101300.7063
101304.5138
101306.6599
101299.5398
101294.567
101295.1367
101290.4839
101297.1535
101306.126
101310.5715
101299.5115
101317.9627
101335.8713
101336.8758
101317.5762
101317.023
101321.4924
101326.1286
101309.7156
101295.1365
101295.1081
101303.8203
101308.4322
101298.8329
101291.1344
101292.9383
101294.8597
101297.2151
101299.6955
101305.4513
101295.1673
101311.0723
101328.6471
101332.2006
101315.7108
101311.5159
101314.8627
101323.7061
101309.6165
101292.6098
101291.1398
101301.6914
101308.2905
101299.7612
101291.8243
101293.2651
101297.0047
101295.4908
101291.9483
101298.5448
101291.7734
101306.0151
101318.8535
101323.1877
101313.2436
101308.016
101308.0175
101317.851
101308.7233
101294.5531
101291.5853
101300.0987
101306.9553
101302.1323
101296.6663
101296.0783
101295.8858
101291.6608
101285.0102
101290.6514
101289.04
101302.6692
101307.6364
101310.7745
101309.0255
101306.5685
101302.89
101309.9449
101305.9905
101300.2904
101297.11
101300.3998
101305.4478
101305.0523
101303.513
101300.4213
101293.8649
101288.905
101279.9131
101283.4885
101285.8068
101299.8073
101296.9422
101297.8883
101303.7267
101306.9153
101300.3274
101301.4507
101302.1723
101307.2884
101306.0106
101302.8464
101304.0187
101306.9548
101309.6274
101304.4231
101293.8452
101288.8461
101276.3486
101278.2345
101281.4428
101295.287
101287.7711
101287.667
101298.4963
101306.4103
101298.578
101294.0365
101297.9018
101313.1264
101314.8205
101306.4034
101302.9452
101306.9207
101313.1249
101307.0548
101296.0367
101291.0922
101273.1642
101275.6375
101277.6512
101289.9964
101281.7492
101282.3604
101294.8505
101304.3679
101296.7607
101289.8845
101295.1125
101315.3521
101320.2783
101310.0605
101302.8835
101305.9628
101313.9038
101307.7514
101297.9204
101292.2661
101270.9722
101275.7963
101276.2499
101286.4766
101280.1654
101282.4192
101292.456
101300.3933
101295.0987
101290.0673
101294.7813
101314.0227
101320.5589
101312.5634
101304.4273
101305.873
101312.9327
101307.1697
101297.696
101291.5711
101271.6304
101278.3065
101279.0507
101286.5291
101282.8994
101286.2261
101291.1122
101295.8696
101295.3489
101294.3721
101297.1095
101310.1213
101316.2304
101313.4073
101307.5261
101307.3428
101311.699
101305.9769
101295.7352
101290.0916
101276.0123
101282.1921
101284.7333
101289.9913
101287.9947
101290.7947
101291.0778
101292.8365
101296.8638
101299.8043
101300.1581
101305.9461
101310.0486
101311.7192
101309.6993
101308.9548
101310.2436
101304.5681
101294.4843
101291.048
101283.8214
101287.6588
101291.8565
101295.4188
101294.035
101295.327
101293.0736
101293.0285
101298.7194
101303.3141
101302.0189
101302.8039
101304.6996
101307.6543
101308.5817
101308.2773
101308.0011
101303.1749
101296.7952
101295.7965
101294.269
101295.8669
101298.0254
101299.2468
101298.3975
101298.4893
101297.0205
101297.2602
101300.2972
101302.65
101301.4835
101300.3587
101300.6782
101302.8492
101304.0012
101303.8188
101303.2229
101301.0966
101291.6879
101297.664
101298.2779
101309.8429
101303.8937
101330.574
101340.0062
101338.9715
101327.3381
101324.2758
101319.9955
101324.2206
101312.4403
101300.7948
101299.79
101307.8708
101315.5398
101312.8191
101307.9556
101301.8793
101293.1697
101299.2104
101297.3948
101308.6162
101304.9513
101330.4333
101335.9098
101336.414
101329.3316
101328.0045
101320.779
101322.0208
101311.0668
101302.6719
101302.3215
101307.6413
101313.1034
101310.8552
101307.5109
101302.0849
101296.9831
101303.5067
101299.6675
101311.0859
101308.0375
101330.9362
101330.9184
101332.6489
101332.4387
101333.8893
101321.7891
101318.3938
101308.4572
101304.7276
101305.9514
101307.1955
101309.0818
101307.4391
101306.8919
101302.4938
101301.9315
101309.0048
101304.5822
101316.6658
101312.1764
101332.2663
101328.6629
101330.1122
101334.6057
101338.4064
101322.7042
101314.7055
101305.1546
101305.5278
101308.4253
101306.2154
101305.058
101304.1611
101306.4276
101302.9205
101302.5914
101310.2511
101308.0093
101320.0398
101313.8526
101332.891
101330.9596
101331.1139
101333.6413
101338.5926
101323.9067
101313.4643
101302.6356
101304.8307
101309.0078
101305.0402
101302.7035
101302.1148
101305.9187
101302.8692
101298.4023
101306.2361
101307.7304
101319.0485
101312.357
101332.0332
101336.1003
101334.9429
101330.1841
101334.3911
101324.5215
101315.1475
101302.9523
101303.6774
101307.0909
101303.4896
101302.487
101301.9886
101305.0514
101302.1548
101293.5838
101302.5058
101304.4167
101314.3546
101310.4658
101329.7054
101338.6951
101338.4931
101327.2874
101327.7649
101322.6692
101318.3361
101306.7686
101303.121
101302.9604
101300.9951
101303.4757
101303.3624
101304.1834
101300.7947
101293.2311
101303.0037
101300.9733
101308.8265
101309.5806
101326.3783
101335.3041
101338.9597
101326.8314
101321.6053
101317.3993
101320.5643
101312.3903
101303.7354
101297.8266
101297.1721
101303.9904
101305.2011
101303.8319
101299.5536
101298.8338
101308.8062
101299.0019
101304.4519
101309.153
101321.8918
101327.3265
101336.0434
101328.8157
101317.8075
101310.1846
101319.7234
101318.0312
101305.9287
101293.3775
101292.4151
101302.9852
101306.8185
101304.7328
101299.1443
101305.2996
101312.7981
101297.2022
101300.5618
101306.9929
101316.7957
101317.5574
101329.327
101329.6731
101315.8105
101303.4568
101316.3085
101321.3314
101309.0995
101291.4289
101288.8497
101301.2386
101308.119
101306.5739
101300.0614
101305.0932
101308.4548
101293.9991
101295.5405
101301.2976
101311.4719
101309.5888
101320.244
101325.3043
101314.1269
101300.7723
101311.8593
101319.3907
101311.36
101294.1096
101289.4037
101300.7082
101308.9784
101308.8272
101301.7686
101297.703
101295.7852
101289.3341
101289.2083
101292.1546
101305.668
101304.2253
101309.9456
101314.8614
101311.4765
101302.8368
101307.6719
101312.2296
101311.3239
101300.2563
101295.3497
101302.5425
101309.1559
101310.0465
101303.3969
101288.9026
101282.825
101284.909
101283.8429
101281.8145
101299.1745
101300.8819
101300.4922
101301.6946
101308.0642
101308.5516
101305.2623
101302.6857
101308.5495
101308.1225
101305.4591
101306.617
101308.299
101308.9624
101303.7631
101285.9711
101276.9233
101282.7484
101280.9588
101273.614
101292.5259
101297.0246
101293.3428
101290.6804
101304.378
101313.8136
101305.2354
101294.7436
101304.4012
101314.3639
101316.0306
101311.3548
101306.4151
101305.8478
101302.7528
101289.2718
101279.8418
101283.0667
101281.2981
101269.8927
101287.5429
101292.3904
101289.5714
101285.3726
101300.7452
101315.0752
101306.8725
101292.8008
101300.7659
101316.6791
101323.354
101315.0925
101304.6488
101302.264
101301.1878
101294.2042
101286.6077
101283.7649
101282.0684
101270.6756
101285.4308
101288.5934
101289.1574
101285.7712
101296.7779
101310.7591
101308.2983
101296.9827
101299.7634
101314.3809
101324.0188
101316.7501
101305.1232
101301.4959
101300.5895
101295.7639
101291.0005
101284.2237
101281.8982
101273.8699
101286.0695
101287.4981
101291.211
101288.9372
101292.4248
101302.9413
101309.8261
101304.9888
101301.9074
101308.4585
101317.9875
101315.8642
101307.8031
101304.0622
101301.5571
101294.291
101291.4744
101285.1232
101281.2029
101277.8726
101288.1636
101289.4899
101293.8866
101291.4228
101289.8667
101295.9598
101308.8875
101311.083
101304.6013
101302.2649
101309.5402
101312.4948
101309.986
101307.312
101302.9665
101292.6166
101292.1343
101288.1429
101283.1122
101283.8899
101291.9287
101293.518
101296.4361
101293.7945
101290.2034
101293.379
101305.5711
101311.6592
101305.5659
101299.181
101302.7834
101307.5756
101308.6421
101307.6136
101303.2513
101295.5442
101296.0292
101295.2389
101293.0113
101294.2134
101297.4842
101297.7272
101298.7024
101297.2545
101295.375
101296.5372
101302.8355
101305.9791
101302.7257
101298.754
101299.4888
101302.2827
101304.099
101304.0354
101301.5958
101299.9829
101310.3079
101305.8702
101304.4117
101307.4587
101334.6981
101343.4088
101348.6638
101339.0168
101319.5074
101312.2724
101328.6832
101324.3743
101304.4734
101284.9056
101288.5129
101306.9201
101316.2328
101312.9807
101303.4545
101295.6952
101303.4862
101308.6445
101307.9385
101307.9841
101335.5604
101343.7023
101345.0925
101334.1468
101322.4227
101320.0219
101328.1585
101317.1367
101302.9592
101292.8102
101297.1587
101309.431
101313.0892
101308.902
101301.868
101291.1451
101295.7137
101314.1183
101314.1039
101310.2882
101337.8852
101342.4747
101338.0412
101328.7424
101328.5905
101330.0534
101325.8219
101306.576
101298.5151
101300.0259
101305.8451
101310.529
101307.6853
101303.651
101300.131
101289.713
101292.5469
101320.6846
101321.4868
101313.8186
101339.5179
101339.8079
101331.2436
101325.8983
101336.3701
101336.8821
101322.0603
101296.7685
101292.5145
101302.4745
101309.5092
101308.6982
101301.7638
101299.4035
101299.2852
101292.1714
101296.0217
101322.4237
101326.2118
101315.4356
101336.7693
101340.1477
101331.8342
101326.2416
101337.9841
101336.9712
101319.835
101292.9579
101288.1294
101299.9604
101307.7961
101305.8555
101298.6568
101299.0734
101299.9954
101297.6275
101303.0837
101316.7127
101325.5642
101315.1791
101330.9688
101342.1903
101338.9804
101328.4373
101332.3448
101329.447
101318.5033
101296.432
101288.9652
101295.483
101301.6827
101302.6525
101299.6163
101302.8912
101302.1796
101301.8483
101308.9981
101304.6319
101317.6961
101316.2518
101326.0019
101338.368
101343.6415
101332.1898
101324.9941
101317.7603
101316.6359
101304.6067
101295.2501
101292.1254
101293.8777
101299.7493
101303.5128
101308.8068
101304.9072
101305.1832
101313.5324
101292.5895
101307.2828
101319.4752
101324.4947
101327.1482
101340.3098
101336.5934
101321.3235
101306.2798
101312.5021
101313.2468
101304.7464
101291.699
101286.9039
101296.2007
101307.1042
101314.5335
101307.2601
101310.532
101320.2466
101288.3867
101300.1267
101324.2981
101326.2009
101311.6895
101330.0131
101342.0611
101323.3785
101299.3853
101306.754
101319.2977
101316.2196
101296.2978
101283.1489
101292.7355
101308.5417
101317.9162
101308.5387
101313.5652
101322.5436
101291.8194
101296.3869
101323.9021
101326.1662
101300.3898
101317.665
101343.2571
101327.5787
101298.0438
101301.3398
101319.9959
101325.4762
101304.3075
101283.7164
101290.6526
101308.2421
101318.8756
101309.0192
101308.7433
101315.9547
101296.455
101293.2421
101313.656
101319.502
101297.4691
101309.8779
101334.6242
101327.2899
101302.0731
101298.7385
101315.9227
101326.9015
101309.7654
101288.7664
101292.6195
101308.0543
101317.851
101308.6673
101297.0683
101299.5181
101296.6673
101289.2655
101294.4919
101306.7488
101301.1158
101307.3942
101317.5752
101319.3071
101309.7178
101303.0157
101309.8151
101320.2445
101309.6036
101296.1332
101298.4661
101308.8287
101315.1705
101307.4571
101285.5177
101281.9423
101293.2747
101285.979
101275.3261
101292.9131
101306.6705
101307.4373
101298.414
101306.7524
101318.8201
101313.1996
101305.9465
101309.1697
101306.9901
101305.8938
101307.5207
101309.7315
101310.5184
101304.7713
101281.3548
101272.3142
101291.8041
101285.3533
101265.0999
101284.2906
101307.6596
101306.0076
101283.3438
101295.4001
101326.3852
101323.415
101305.4526
101299.8017
101305.2849
101315.8675
101316.778
101310.0417
101304.305
101300.7983
101284.5524
101273.9785
101293.5454
101287.0024
101265.4593
101282.698
101302.7801
101302.6416
101278.7324
101289.9732
101327.2199
101330.0831
101308.6179
101295.6069
101304.7507
101322.906
101323.6578
101309.0084
101297.3509
101296.4841
101289.4153
101282.8469
101296.4986
101285.6749
101270.7209
101285.4716
101293.9414
101298.7088
101284.8365
101289.9433
101318.93
101330.1292
101313.8638
101297.925
101303.7669
101323.281
101325.5532
101308.9542
101294.5123
101294.3788
101290.8303
101289.2969
101297.2401
101281.7144
101274.4164
101287.213
101286.5539
101296.4169
101293.5833
101290.0758
101304.0835
101323.5733
101319.6653
101303.7237
101301.1506
101316.4931
101321.7284
101310.5199
101297.496
101295.8386
101291.1093
101292.2252
101295.1236
101279.3928
101275.4188
101285.718
101284.2978
101296.6723
101298.5494
101287.9017
101290.2941
101313.1772
101322.1842
101308.099
101297.8345
101306.7232
101314.9004
101311.973
101303.0456
101299.0525
101292.2504
101294.1099
101294.0528
101282.262
101278.2959
101285.0148
101288.5232
101298.3824
101298.9033
101286.8273
101285.24
101303.8348
101318.2302
101308.799
101296.4285
101299.6898
101307.6072
101309.4808
101305.7076
101301.3329
101295.7552
101296.7834
101296.7773
101292.1019
101290.6705
101294.0684
101296.1094
101299.2466
101298.761
101293.4437
101292.4761
101300.842
101308.2227
101304.4766
101297.6954
101297.5757
101301.6137
101304.3959
101303.8614
101301.3645
101322.1821
101343.7527
101315.3208
101303.5023
101323.9672
101333.5772
101325.2548
101340.4668
101346.4598
101327.4144
101302.5712
101298.6328
101310.271
101316.6169
101299.834
101277.964
101280.8612
101298.1527
101308.962
101304.0624
101309.6924
101325.4987
101325.3438
101313.0806
101318.1709
101335.7643
101338.8859
101345.5438
101340.6785
101325.8598
101312.2228
101307.976
101309.5413
101310.0733
101294.8598
101280.2409
101286.1543
101300.6203
101307.8425
101302.9073
101291.2406
101299.1764
101331.6478
101318.7473
101314.1195
101341.389
101350.0206
101344.2877
101329.8102
101323.2563
101323.0894
101319.045
101307.1844
101297.6176
101286.3361
101285.3854
101295.2205
101302.515
101303.8944
101300.0697
101273.846
101277.3639
101332.7058
101318.4848
101313.6704
101345.1761
101351.3207
101336.3166
101318.3815
101319.1925
101330.2659
101328.0063
101304.6604
101283.955
101277.0639
101291.4929
101302.8977
101301.711
101298.1922
101296.4376
101277.0259
101281.4312
101331.5336
101321.2936
101316.6487
101339.7558
101347.9173
101336.9779
101316.9214
101315.2244
101329.9105
101333.8921
101304.5655
101272.2243
101268.9759
101294.4056
101306.9443
101299.7038
101294.2904
101294.7761
101298.5734
101307.8867
101325.5308
101327.0662
101321.7356
101327.2533
101341.5167
101347.4487
101327.4515
101313.99
101322.7822
101333.0681
101307.0271
101268.6046
101265.5789
101293.0487
101305.4579
101299.188
101296.1019
101296.8624
101318.4201
101327.9199
101310.7088
101324.4519
101326.239
101318.1867
101330.4304
101350.2278
101340.2953
101318.375
101312.8366
101322.6289
101306.7906
101275.5015
101270.5649
101289.4277
101298.941
101299.9744
101303.6267
101302.3516
101323.0741
101329.6116
101291.7643
101314.9429
101329.6186
101318.7599
101316.6129
101338.7836
101347.1288
101326.4955
101305.6426
101305.668
101302.3113
101290.3582
101284.3506
101286.5578
101290.2614
101300.0279
101312.551
101309.1488
101316.5754
101317.2592
101283.2814
101305.9837
101334.5412
101328.4039
101302.1988
101316.5975
101345.5279
101337.169
101307.1307
101290.7122
101295.0051
101307.079
101305.1564
101288.2891
101283.0919
101298.2925
101318.5589
101314.084
101304.4311
101304.7493
101290.4651
101301.1913
101332.0719
101334.0306
101292.5013
101296.766
101336.9972
101347.6862
101317.051
101284.2172
101287.902
101320.215
101325.8718
101295.7254
101280.1187
101295.0988
101318.8198
101315.3471
101295.0336
101299.6914
101301.4349
101298.4904
101317.0693
101324.7832
101291.8617
101291.5865
101322.4788
101344.3715
101328.5191
101288.1988
101284.5749
101323.2093
101336.0704
101306.6943
101284.8722
101293.1446
101314.0433
101312.5816
101291.874
101297.9162
101306.234
101294.6258
101292.957
101303.2009
101300.4651
101302.3236
101307.2086
101326.8527
101332.4327
101301.6428
101290.2038
101315.3592
101330.4154
101314.4534
101295.3845
101295.1636
101307.3312
101307.2439
101292.4149
101294.8098
101301.3159
101290.4044
101273.4386
101281.4703
101309.5974
101320.0379
101296.9416
101301.2947
101327.5421
101323.0322
101307.5429
101303.1431
101311.886
101315.85
101309.4269
101302.0271
101302.2683
101301.5974
101294.1554
101291.2493
101296.093
101286.5355
101269.2791
101273.2734
101308.0259
101329.3718
101292.8957
101280.1577
101317.3785
101343.7389
101329.5929
101296.4397
101290.5226
101311.4261
101322.1564
101312.8406
101301.1918
101297.4225
101295.4877
101291.8562
101298.2062
101284.24
101278.247
101278.3525
101296.0359
101322.692
101293.0113
101273.6085
101304.7211
101350.9879
101346.7945
101300.6388
101280.0232
101304.0837
101328.5223
101323.9355
101304.1396
101296.1552
101293.0712
101294.4893
101303.3742
101279.1182
101287.3174
101287.3577
101280.4378
101304.2474
101297.5697
101282.6282
101295.3501
101338.1611
101350.6943
101314.2036
101286.5229
101297.7737
101324.5589
101327.7558
101308.332
101297.1662
101290.3435
101297.3382
101303.2423
101271.4453
101286.5326
101291.0904
101272.5826
101289.1228
101304.3808
101298.3014
101289.2396
101308.769
101340.1878
101336.1417
101306.5676
101293.6134
101310.1041
101320.3322
101309.6734
101299.1185
101296.2196
101300.7442
101297.1655
101272.8413
101281.2561
101288.1045
101277.2698
101287.9576
101311.144
101310.9496
101286.5729
101282.2672
101323.1218
101349.9571
101324.395
101292.4496
101292.2343
101306.9457
101307.5435
101300.6081
101305.9583
101301.9227
101291.1424
101283.2349
101277.7913
101283.4021
101290.3495
101295.3114
101311.7399
101314.4737
101287.9404
101271.3086
101307.0286
101343.6618
101327.555
101295.0064
101285.6297
101296.7304
101302.2263
101300.5684
101304.6138
101300.5435
101294.0212
101292.8742
101287.6754
101291.719
101298.5289
101298.7955
101304.0934
101304.3144
101293.628
101284.2698
101299.692
101319.9418
101314.8333
101297.649
101290.6774
101295.78
101299.9227
101300.6042
101334.2626
101353.155
101315.9596
101318.4325
101347.0958
101327.3522
101312.254
101320.7691
101345.1686
101354.0052
101304.8206
101259.9364
101296.1321
101338.2038
101319.581
101271.3745
101244.2886
101259.8727
101289.3951
101300.9443
101326.1945
101342.9059
101334.9698
101335.6295
101340.5295
101323.6422
101319.2218
101338.2505
101344.6481
101326.8276
101294.456
101273.8184
101295.4613
101311.1911
101290.8144
101264.491
101259.0908
101275.4111
101296.4172
101302.6933
101302.0704
101314.7178
101341.2931
101334.0258
101330.809
101328.5831
101331.93
101349.5938
101335.1786
101300.4458
101291.493
101298.8268
101298.7224
101282.5785
101261.1097
101260.4098
101275.8167
101289.712
101300.5614
101302.0089
101268.7165
101279.6312
101332.9027
101315.8718
101321.4588
101341.7425
101350.0135
101351.5797
101319.1957
101281.0301
101302.5862
101333.2303
101308.7083
101262.8264
101242.1262
101263.8991
101289.8031
101298.2562
101297.947
101296.8023
101267.9025
101280.6419
101325.2334
101305.891
101323.0455
101343.3459
101352.9747
101351.0492
101316.591
101283.609
101311.4168
101347.7388
101313.7945
101257.4524
101240.1233
101270.1147
101295.1392
101298.0239
101291.1066
101291.0096
101302.2294
101320.4681
101322.8185
101312.0315
101331.9779
101333.6827
101335.0804
101343.9596
101328.8955
101308.0847
101315.6438
101329.696
101304.3552
101264.076
101252.1562
101274.5639
101291.4184
101293.0244
101286.7202
101288.938
101336.0448
101350.3774
101319.2241
101321.5569
101336.4685
101320.9165
101313.6198
101332.1057
101342.9339
101330.739
101313.1887
101304.5997
101289.8001
101271.9395
101265.4314
101275.9475
101284.3946
101288.5956
101289.2835
101292.8433
101337.8231
101341.5627
101307.6489
101326.1865
101332.705
101316.7654
101305.1428
101319.2952
101347.8545
101345.5967
101315.2398
101286.6897
101278.5807
101280.3592
101278.9143
101276.7748
101278.7662
101287.6819
101297.2978
101300.6009
101309.6246
101295.9013
101297.737
101322.603
101326.1945
101323.6692
101307.7824
101303.4744
101331.6652
101350.9274
101326.2643
101282.6201
101266.8575
101283.1104
101293.7961
101287.1917
101281.6395
101290.3459
101304.3306
101306.935
101275.2842
101257.3434
101296.8276
101316.7928
101316.8264
101325.0256
101312.9201
101290.8727
101301.1958
101345.396
101349.3782
101292.8515
101255.6519
101278.6879
101306.3042
101306.2121
101293.0958
101293.671
101306.1776
101308.4822
101267.1583
101259.1678
101304.9945
101311.7385
101302.694
101311.7286
101315.7826
101295.4622
101281.1467
101327.2128
101363.6862
101310.8369
101260.8402
101276.4143
101313.7493
101322.3972
101303.9499
101293.6983
101301.4376
101304.8443
101288.8029
101291.4118
101307.8375
101305.1186
101287.2019
101286.6325
101313.9287
101316.2522
101287.6295
101305.8357
101347.1509
101325.6799
101290.6335
101286.8916
101313.7264
101326.8942
101307.6923
101290.9816
101293.0525
101298.9538
101316.2204
101321.8349
101296.8072
101295.2069
101281.796
101265.449
101299.4345
101335.0483
101307.6714
101290.4932
101309.4108
101331.8094
101328.6717
101303.9959
101305.2017
101320.1572
101308.4426
101291.9996
101288.8399
101295.0096
101325.4125
101329.0894
101282.065
101281.4765
101290.4727
101264.7527
101279.2758
101336.2659
101324.0257
101282.8605
101276.4234
101329.1966
101354.5827
101318.6007
101297.9044
101309.2125
101310.8115
101301.0591
101293.7676
101295.5993
101311.6312
101314.8558
101278.853
101269.3077
101307.1921
101281.0606
101265.374
101318.8115
101322.3104
101282.7385
101267.4753
101320.2692
101362.6235
101332.1988
101298.9609
101299.982
101313.6611
101315.5794
101306.5327
101300.5077
101290.1813
101293.422
101284.2698
101265.6149
101312.4647
101294.9409
101264.1984
101291.7501
101307.7961
101295.0982
101281.633
101306.1515
101351.9716
101346.8965
101310.6706
101293.4135
101310.6435
101324.9977
101319.2594
101306.3326
101283.1923
101287.5288
101287.3668
101268.2865
101302.6534
101292.837
101270.7974
101279.1662
101299.1422
101313.3032
101299.135
101287.96
101330.6688
101358.3795
101327.8524
101291.2735
101297.1313
101319.2079
101323.8376
101309.4438
101305.2017
101302.183
101288.2567
101286.5796
101292.5091
101281.0883
101278.3733
101286.6369
101310.7023
101331.3122
101304.3272
101272.7898
101312.7409
101362.002
101340.8311
101288.6253
101278.0567
101303.3639
101318.9021
101309.2418
101334.7921
101316.5027
101287.8292
101310.1656
101286.9961
101269.5105
101284.7361
101302.4776
101322.2241
101334.2763
101298.3896
101268.4583
101302.1806
101349.9543
101338.9787
101291.0484
101272.8622
101290.0299
101306.7183
101305.2935
101324.8052
101309.4637
101292.7441
101305.8685
101290.4462
101284.3542
101295.0531
101304.4295
101311.1437
101311.2659
101296.1376
101283.3158
101298.8757
101321.5665
101318.4356
101295.9154
101284.1942
101290.4042
101300.0663
101301.9187
101310.4904
101301.892
101313.3887
101347.4337
101375.6832
101315.3958
101288.283
101317.0013
101328.455
101314.2967
101302.2937
101298.2002
101284.0364
101243.1641
101237.8229
101281.6778
101271.4561
101253.9382
101263.8413
101284.4755
101331.8861
101328.1499
101327.9834
101369.1279
101375.2232
101305.7535
101294.4835
101337.3885
101331.0377
101295.2999
101279.9389
101287.299
101281.2001
101259.0101
101257.0819
101264.8097
101258.936
101253.1079
101269.9805
101290.324
101326.4197
101334.5499
101330.2801
101360.1128
101363.2801
101310.832
101317.7196
101348.995
101325.0012
101286.0326
101271.959
101269.9639
101268.1011
101277.9903
101275.8997
101248.711
101245.6758
101257.3727
101279.9036
101295.9023
101288.8327
101313.4641
101317.9212
101324.9781
101341.9383
101330.6418
101348.7343
101352.5804
101318.7805
101299.1289
101287.6427
101256.6232
101253.8292
101289.3266
101279.8204
101238.561
101241.699
101268.2035
101289.6378
101299.4623
101277.0901
101307.4695
101307.1928
101294.5871
101334.3359
101344.9401
101346.8589
101338.6483
101322.5931
101317.0742
101296.8123
101256.0904
101260.249
101299.1144
101275.6363
101229.7198
101242.8377
101278.972
101295.7666
101297.9655
101301.2436
101333.2346
101311.8352
101287.8745
101339.2281
101351.5699
101312.2906
101306.3087
101333.2514
101333.5987
101295.765
101262.3388
101275.5188
101304.7744
101273.7046
101225.2746
101244.8377
101284.0268
101295.8886
101294.1019
101336.04
101356.6168
101331.4809
101310.2123
101337.7603
101342.3569
101291.8771
101285.4874
101334.1002
101344.6265
101301.042
101262.3995
101277.0013
101301.2605
101274.1632
101228.3183
101248.8598
101285.0711
101292.1325
101290.3349
101334.8112
101336.2164
101342.796
101339.0007
101326.6313
101325.9547
101298.9302
101287.7769
101323.6234
101349.0319
101322.1251
101274.9837
101266.2039
101286.3669
101275.5369
101239.1222
101258.4038
101286.3669
101288.9286
101288.8229
101289.1339
101263.355
101326.4288
101343.791
101308.9688
101314.3286
101326.9535
101304.2082
101298.6562
101332.8383
101342.6248
101299.3248
101254.3084
101263.7907
101273.3897
101259.2335
101277.3935
101291.517
101287.115
101288.3587
101235.6595
101196.1715
101299.2905
101330.991
101292.463
101302.5951
101352.0246
101323.4805
101270.8875
101303.108
101357.9854
101322.4168
101251.8281
101243.1978
101267.3557
101285.0128
101302.7041
101300.7133
101285.7121
101287.1438
101235.8462
101202.2567
101285.5121
101318.7574
101282.2675
101287.7009
101351.0725
101334.0192
101263.9751
101284.9794
101349.9408
101332.3678
101269.2203
101236.9562
101260.0169
101305.6988
101324.8213
101307.7825
101283.8726
101285.089
101289.4623
101280.3929
101290.859
101311.7685
101286.1311
101270.1454
101319.2005
101330.9793
101284.6535
101285.1692
101323.441
101338.0764
101306.3587
101255.3377
101258.446
101311.6795
101331.9716
101309.8789
101284.0048
101284.5937
101347.611
101353.8573
101290.423
101300.6149
101306.9623
101269.0068
101273.75
101318.1825
101322.4911
101299.0776
101283.5989
101329.3209
101353.2692
101300.8711
101271.9279
101303.9927
101322.1808
101308.1787
101289.4177
101289.245
101356.3713
101371.282
101274.9378
101279.0541
101326.2331
101282.8717
101243.3995
101300.6589
101355.4799
101311.2275
101247.8769
101307.5996
101385.1785
101355.3218
101296.3139
101290.6962
101302.2375
101305.411
101301.6139
101298.8735
101314.75
101326.055
101257.4798
101253.628
101324.7486
101294.172
101244.1695
101288.2182
101354.2787
101313.7878
101241.9383
101282.8314
101376.2597
101384.7214
101323.036
101284.8733
101285.06
101303.3271
101315.7923
101310.2757
101270.5254
101263.8523
101245.5274
101255.2382
101309.6198
101287.0319
101265.0338
101283.414
101313.5562
101307.9892
101274.7684
101276.2064
101334.3536
101371.3106
101343.7203
101296.911
101278.935
101299.427
101322.2864
101316.3314
101267.0521
101240.8203
101247.6464
101286.6492
101303.1387
101267.6891
101280.4296
101285.5595
101273.6164
101308.192
101326.2795
101285.3634
101274.3484
101327.4497
101359.8068
101329.0911
101289.6981
101289.7902
101313.4415
101313.2604
101308.1147
101275.2853
101266.8188
101331.8975
101321.9282
101264.943
101279.5799
101294.5368
101269.7001
101318.7324
101368.2456
101302.2575
101232.8325
101285.485
101374.7502
101365.3624
101305.7209
101278.4169
101294.7971
101304.2759
101354.5321
101316.2751
101285.93
101367.648
101341.4904
101274.6504
101275.4626
101309.0262
101293.8035
101333.1137
101372.7558
101316.0414
101233.4664
101267.7298
101363.3659
101369.8798
101313.5512
101278.0488
101283.2538
101296.6962
101337.132
101313.9971
101295.3153
101329.3612
101317.4936
101290.5318
101292.0393
101308.6767
101304.6851
101319.2352
101330.3854
101305.2788
101268.3613
101277.6556
101323.9797
101335.1846
101310.0413
101288.3111
101287.2695
101296.886
101281.9876
101261.3436
101332.3692
101369.9953
101381.8703
101333.8511
101325.9132
101320.5548
101257.5172
101246.8204
101325.8232
101305.9783
101212.2461
101166.4702
101212.8673
101281.6187
101298.2243
101262.7344
101240.5181
101265.1307
101323.0767
101304.4534
101316.4029
101360.5013
101388.9882
101324.0957
101291.8477
101308.7356
101318.3177
101300.9162
101289.9081
101275.9329
101232.4473
101207.8006
101233.5753
101257.1327
101251.3714
101241.8078
101248.4396
101274.2726
101340.8001
101343.9401
101308.3884
101352.7725
101379.9144
101317.195
101294.271
101312.3084
101357.8302
101333.3688
101257.6361