/*--------------------------------*- C++ -*----------------------------------*\
| =========                 |                                                 |
| \\      /  F ield         | OpenFOAM: The Open Source CFD Toolbox           |
|  \\    /   O peration     | Version:  5.x                                   |
|   \\  /    A nd           | Web:      www.OpenFOAM.org                      |
|    \\/     M anipulation  |                                                 |
\*---------------------------------------------------------------------------*/
FoamFile
{
    version     2.0;
    format      ascii;
    class       surfaceScalarField;
    location    "4";
    object      phi;
}
// * * * * * * * * * * * * * * * * * * * * * * * * * * * * * * * * * * * * * //

dimensions      [1 0 -1 0 0 0 0];

internalField   nonuniform List<scalar> 
91025
(
0.2051582114
-0.06826480604
0.07152388205
0.1393595236
-0.1680246462
0.3925751603
-0.09110798043
0.1081363827
0.1986657985
-0.1649776739
-0.02505729017
0.3210754772
-0.2273109242
-0.07493366297
0.3148960904
-0.2505877157
-0.04490936512
0.3135371394
-0.3004381419
-0.09194245651
0.2217053736
-0.3026879189
-0.2639796152
0.4058675909
-0.3335236952
-0.05784473769
0.4863855452
-0.01049398029
0.1151931108
0.4724087933
0.172128515
0.04655289666
0.2769245706
0.1379394188
-0.2654895382
0.1240981069
0.1312694173
-0.3668729369
0.289241691
0.2677423518
-0.1664299518
0.3768011619
0.4131466048
0.1075277209
0.2309289485
0.3973393252
0.0581660219
-0.0543534583
0.1985778641
-0.04944083965
-0.1918892225
-0.03026367401
-0.1245391714
-0.2069756041
-0.2879924277
-0.05863214983
-0.1525582542
-0.01524712692
-0.08224349052
0.1941546816
-0.0708828997
0.03124234093
0.1926466016
-0.2287697836
0.3482518177
-0.09474643627
0.1804156382
0.2198730531
-0.189456749
-0.0503997751
0.3537887188
-0.2284882547
-0.1064012118
0.3056083282
-0.2794549323
-0.08367627607
0.3177949855
-0.3231862002
-0.09724510523
0.2652341713
-0.2430176653
-0.394449706
0.4517175983
-0.2570445724
-0.1024871293
0.4458224982
-0.04152996115
0.1244813822
0.3861083554
0.06640958449
0.00779605142
0.2663278041
0.0936177807
-0.4680064006
0.1719473782
0.2110153918
-0.6224815296
0.3052421698
0.3646086793
-0.3763804842
0.3068288357
0.4236285407
0.03413774018
0.1636503788
0.3296343353
-0.01524333111
-0.05397615653
0.1599699882
-0.1009064329
-0.1339774537
-0.01649275357
-0.2041440672
-0.1576378162
-0.2610559724
-0.07856437784
-0.1358896051
-0.02797125922
-0.08370295717
0.1861776895
0.0003731801065
-0.04527164029
0.2622486936
-0.1794912181
0.2621525779
-0.1167066331
0.1472565581
0.1951540872
-0.2357993014
-0.112694546
0.3400779813
-0.2394735975
-0.09240167428
0.2789608935
-0.3297113812
-0.144524999
0.3202200752
-0.3725621629
0.01734971121
0.3301953159
-0.1727590342
-0.2910894396
0.5033385241
-0.1564760798
-0.1105599609
0.3562770545
-0.09982836878
-0.03242576474
0.2670291758
-0.1027881295
-0.1103505407
0.2446885654
0.01923752182
-0.5652756781
0.2594315088
0.318154315
-0.689321572
0.3297190161
0.5166046248
-0.5846841959
0.2247605358
0.4597769187
-0.1968257695
0.06907914864
0.2762529448
-0.2032139843
-0.04034168812
0.1271595528
-0.1344143308
-0.05774671697
0.01500679195
-0.2061426551
-0.09815656572
-0.2195547605
-0.05077620168
-0.1224441567
-0.04650681612
-0.0895807072
0.1937829682
0.09470898936
-0.1301575485
0.3080482156
-0.06978012202
0.1676508047
-0.1382583217
-0.002063975761
0.1349202628
-0.2724582995
-0.22116808
0.2823872803
-0.2265780022
-0.04792927584
0.2528035922
-0.337990903
-0.2255798076
0.3128623157
-0.4095802172
0.188368373
0.3691967839
-0.1430114341
-0.001944963908
0.5182446589
-0.1063155603
-0.0767483905
0.3033693351
-0.1657540285
-0.2895970316
0.1782710459
-0.270949345
-0.3031599882
0.2674125566
-0.06807872213
-0.5669361716
0.3461093692
0.3782796095
-0.5626381586
0.383068017
0.6484163474
-0.7025741238
0.1691334503
0.5164664673
-0.4825349771
0.01992851778
0.2721152962
-0.4503951828
-0.014539379
0.1262264345
-0.1552166932
0.005618174934
0.04219622332
-0.1542289071
-0.05781281112
-0.1907233833
-0.008049940886
-0.1206106222
-0.07416189711
-0.09765904587
0.1827553661
0.2008643886
-0.1267229436
0.2663457907
0.01480691646
0.1594710589
-0.1717364119
-0.1851138421
0.08990164192
-0.286871759
-0.338127812
0.2614241182
-0.2033720029
0.05788634503
0.247559681
-0.2865523296
-0.2468742598
0.2986659887
-0.4220007901
0.3036242462
0.3203883595
-0.224698682
0.2590300961
0.4794723286
-0.1768099921
0.04935159461
0.2686610868
-0.22608162
-0.5012203851
0.1626905845
-0.3368139142
-0.4661276853
0.2325880068
-0.1203979318
-0.5268732534
0.3741675674
0.3789971179
-0.3067387626
0.3780746066
0.7083926966
-0.6919138363
0.1496233271
0.6023420747
-0.6990424532
0.002217091795
0.3569025031
-0.6925133409
0.004612998473
0.18570228
-0.1922030563
0.01517462439
0.07545528893
-0.1077118584
-0.05179910597
-0.1694480175
0.02224246667
-0.1231616925
-0.1063562019
-0.09646020408
0.1700973206
0.2745384231
-0.03146579285
0.1591062173
0.05877863664
0.2343196389
-0.17645299
-0.2456822417
0.08454210262
-0.2430484399
-0.3784913058
0.2925065716
-0.1404196492
0.2513188024
0.2735391593
-0.1745475225
-0.1515964008
0.2865556337
-0.3762883953
0.3019244059
0.2341962616
-0.3521853946
0.3241531188
0.3952594074
-0.3524045695
0.2476146967
0.3121094002
-0.2827701021
-0.5362307985
0.2097165936
-0.3174515992
-0.538875864
0.2409001814
-0.1238274555
-0.4752570412
0.3107763964
0.2968271693
-0.08038081345
0.3461141242
0.6458317888
-0.5953592558
0.1454000699
0.663750787
-0.8063886681
0.04174503943
0.4904289831
-0.8836272683
0.01194590924
0.2823087243
-0.3051285478
-0.01338731253
0.09235898351
-0.1334492372
-0.08042004971
-0.1696485288
0.01502934523
-0.1151094639
-0.136275249
-0.07847433488
0.1348651098
0.3435220254
0.05790953288
-0.003915697399
0.05539903117
0.2852832766
-0.1702288751
-0.07347055705
0.09296969878
-0.1568564154
-0.2777448755
0.332909028
-0.1051104471
0.5153375348
0.2821677533
-0.1145375486
0.03477915188
0.2803871625
-0.3210601544
0.2846494856
0.1377756774
-0.4755694834
0.2318117053
0.2867134863
-0.5828902458
0.4735598924
0.3107997653
-0.3731436207
-0.3689607259
0.29274463
-0.2229461616
-0.4232242099
0.196482432
-0.06600786068
-0.4637482809
0.1940482487
0.1959747986
0.06162260255
0.2121235456
0.5048230559
-0.4752843838
0.1490717633
0.6965273446
-0.7696269697
0.09221409377
0.6642654707
-0.9864021464
0.02167109179
0.4441183818
-0.4592188629
-0.07388908434
0.1365718541
-0.241464162
-0.125510873
-0.157290361
-0.01844029297
-0.09971181114
-0.1552423429
-0.04587199473
0.1408202473
0.3826603612
0.06943925297
-0.1022036142
0.003027457593
0.2495704171
-0.1177380042
0.2447973995
0.08457108443
-0.04162132896
-0.07428212612
0.3489297642
-0.08305498161
0.7124847566
0.2655375544
-0.1261601775
0.2333663389
0.2830915073
-0.2542953177
0.3412307671
0.1072461162
-0.5121081885
0.1189873762
0.1742771513
-0.7825892254
0.5988987493
0.2955588166
-0.5077862872
-0.1139840595
0.3531577978
-0.1687815799
-0.1568929644
0.2429185277
-0.01234059983
-0.4576189475
0.06033703055
0.08091908008
0.05125516194
0.0901384905
0.3127039443
-0.3898200444
0.1299448402
0.6351744565
-0.6193367556
0.1820618524
0.7918175161
-0.9572525263
0.04258180673
0.6013278848
-0.5703152346
-0.1162792434
0.2051307931
-0.3854603323
-0.1668087957
-0.1333798308
-0.06794508802
-0.07946028215
-0.152430791
-0.01269495931
0.1701299621
0.3368759625
-0.01057018943
-0.1505982193
-0.1677730958
0.1271878593
-0.07991403864
0.5338194345
0.06479215495
0.05233485929
0.110442218
0.3295673421
-0.109154069
0.7551650402
0.2263262493
-0.2157226442
0.340157481
0.3002161084
-0.2342144093
0.5444670734
0.09997801655
-0.5018665579
0.07073704353
0.09762988167
-0.9085179534
0.5904833804
0.1917999904
-0.6830106978
0.1026132763
0.3687772657
-0.1757582414
0.2029267161
0.2579865679
0.04034656076
-0.4078198267
-0.01896166594
0.0063071963
-0.07557767315
-0.05458087079
0.1561475227
-0.3953597786
0.09933719669
0.5607239197
-0.3951854468
0.2399215945
0.8846064324
-0.7691441058
0.07863162065
0.7560076467
-0.5567458841
-0.142415274
0.3173399019
-0.512046472
-0.1995533176
-0.07305520052
-0.1193498698
-0.07740709537
-0.1421401925
0.007225014679
0.244014724
0.1932179482
-0.1036146141
-0.07320821167
-0.418766895
0.04381843359
0.0004387093591
0.6575654573
0.06305407304
0.1241639742
0.1942820516
0.2959041688
-0.1035365857
0.6325456309
0.2009081027
-0.2843616226
0.3150855506
0.3006427669
-0.2592606331
0.7866370455
0.1380707855
-0.473785828
0.08606339924
0.06789983735
-0.944018351
0.4321994616
0.1162758149
-0.8086523529
0.1906577424
0.3311990272
-0.2953935912
0.5513255883
0.3097732773
0.0004227069541
-0.2911822307
-0.05250501612
-0.03552199785
-0.2327583307
-0.1275597713
0.05299542575
-0.4809144346
0.04886584256
0.472829315
-0.1658224473
0.2707628086
0.8857726713
-0.4752386421
0.1010847313
0.8469117986
-0.4161581917
-0.1419891631
0.4207569812
-0.5730422699
-0.2278166563
-0.001764728146
-0.1840680648
-0.1015874803
-0.1421008908
0.0007482620631
0.2641688661
0.06991190466
-0.1111850302
0.05960323985
-0.6432103766
0.05592749356
0.05442916943
0.6682724213
0.08184835102
0.1238124098
0.1908169029
0.2642680913
-0.07604856093
0.4965745252
0.18110093
-0.2972030627
0.2206794805
0.2560638445
-0.3429230386
0.9726154258
0.1429126807
-0.5114680133
0.1087729621
0.0931308642
-0.89965945
0.2539713052
0.0592085425
-0.8382796353
0.1468916584
0.2509990293
-0.4636069605
0.8292847476
0.2701806726
-0.1044644302
-0.1231800854
-0.03131258044
-0.03532417965
-0.2756871917
-0.1371955267
0.07506335856
-0.5392982943
0.01077448319
0.4498085029
0.05321516125
0.211297073
0.8508480724
-0.1574319992
0.08057302774
0.8716499423
-0.2093872751
-0.1468589503
0.5165059472
-0.5838363788
-0.247982405
0.1015218095
-0.2641302462
-0.1508597406
-0.1772114191
-0.03336143301
0.2684579295
0.09358364965
-0.0282170774
0.2755701816
-0.7022457362
0.1731968553
0.1516322436
0.6584606261
0.1089662584
0.1112098209
0.1394430856
0.2551857211
0.009226163685
0.464696132
0.1984927967
-0.2133382234
0.1303793204
0.1917232322
-0.447950495
0.9638534008
0.1504651791
-0.6124225448
0.07849481704
0.1694753378
-0.8181600073
0.1640390538
0.09628912202
-0.7768787307
0.06260977617
0.1551485854
-0.6564439172
0.9728255703
0.1831992953
-0.3059366783
0.0674681205
0.008621584252
-0.05427789854
-0.1224463565
-0.02498264079
0.1713545199
-0.4551334019
-0.01108439027
0.4675941902
0.2489297692
0.09879610923
0.7558994864
0.1126440807
-0.002227103531
0.7965380581
-0.01603041485
-0.1607327375
0.5379530072
-0.5575724618
-0.2530495314
0.2032726348
-0.3465585195
-0.195086323
-0.2287444724
-0.07218921218
0.2316086086
0.265396063
0.0770575397
0.4612458187
-0.4973740863
0.2982791515
0.2253765444
0.6779416653
0.1032706437
0.0654186608
0.05901129303
0.2343414208
0.062876866
0.5607051354
0.2264304445
-0.1450288174
0.0499688762
0.1319628717
-0.566295692
0.7430077682
0.1185743166
-0.7772592988
-0.01659623384
0.2533704649
-0.7096438311
0.236489255
0.1567679059
-0.651303906
0.01655318247
0.06162399956
-0.786905789
0.9463076237
0.01942814706
-0.5215975366
0.2510138236
0.05212890951
-0.06867925299
0.2327196249
0.1059548317
0.3249743691
-0.2121112489
-0.01056233951
0.5557496692
0.4189659921
-0.05800355339
0.6505503081
0.2707751809
-0.1209151489
0.6474531544
0.117603267
-0.1788947748
0.526687017
-0.4841567962
-0.223869607
0.3240122131
-0.3609104124
-0.1931722505
-0.2646077851
-0.09367386426
0.269536196
0.4505569951
0.1117996526
0.6113719829
-0.2068204401
0.3348325821
0.2913099339
0.6456360066
0.0847338664
0.05547693808
-0.08637224038
0.2016099675
0.09335977908
0.6011582709
0.2736377034
-0.1218378705
-0.09466530843
0.1139605906
-0.6379205254
0.3945583801
0.1094863201
-0.8516126181
-0.1472451009
0.3031132724
-0.6213767237
0.386460959
0.233247267
-0.5299337501
0.008244009542
0.006002076664
-0.8435865594
0.7515709546
-0.1022664346
-0.7110043201
0.3588777001
0.07433128094
-0.120661264
0.6606086028
0.2374902131
0.4140898567
0.1495279822
0.0009215934072
0.5865527154
0.559755654
-0.1864540951
0.5103338984
0.2821104727
-0.2414179461
0.4603012008
0.2058957091
-0.1789982191
0.4794684233
-0.3357684938
-0.1502291208
0.4339701969
-0.2340882939
-0.1521993715
-0.2370921436
-0.09079804778
0.3158583264
0.5367273099
0.07022885355
0.6403662881
-0.05340217027
0.2571340409
0.2820833626
0.4574636282
0.0608498175
0.03612178876
-0.3622355674
0.1342033172
0.05321186722
0.4575846775
0.2784929169
-0.1677939152
-0.355285447
0.1112316981
-0.650732073
0.05917896546
0.0917514935
-0.8334174815
-0.284367935
0.2842389773
-0.5499594112
0.548757728
0.231103197
-0.4348859462
-0.005435319225
-0.023708329
-0.7776133739
0.4988305274
-0.1776282473
-0.746061195
0.3783316286
0.06118549548
-0.1529977411
1.072817072
0.2791519025
0.4320913201
0.5587756151
0.02694452745
0.5714075535
0.6983270305
-0.2502651463
0.399459367
0.2319130943
-0.315058077
0.319448409
0.2963217236
-0.1591027258
0.4361250565
-0.08620279706
-0.06715132233
0.5229337536
0.04914566941
-0.08685461606
-0.1382027494
-0.07075896548
0.3987965223
0.4882137412
0.004435489105
0.601122093
-0.1499333165
0.1543742274
0.2511620972
0.1523452698
0.06163366136
0.05200434595
-0.7282229041
0.09469013935
0.01074292926
0.1290460801
0.2636646792
-0.2115395549
-0.7179885628
0.1248112574
-0.5736947054
-0.1538257373
0.1102387921
-0.718509025
-0.418875352
0.2302596104
-0.5333067949
0.5752522476
0.2031731533
-0.4158769181
-0.04852588271
0.006577630367
-0.6652448044
0.3217820981
-0.1471969762
-0.6508743902
0.3639181645
0.0298138608
-0.1931391259
1.348659366
0.2423639695
0.3256219478
0.8956561143
0.05610943677
0.4655428061
0.8467542591
-0.2235024861
0.3057295163
0.2245936388
-0.3202580108
0.2463120827
0.4220026654
-0.1425233042
0.3964790475
0.1935978386
-0.01889648202
0.5268118033
0.3615580395
-0.04253322402
-0.02429440403
-0.04989405032
0.3864131846
0.3899963708
-0.01601781649
0.4578141721
-0.3907796473
0.07495438638
0.1625856237
-0.1404325283
0.05658978562
0.03918467033
-1.016066923
0.06297369623
-0.03803226102
-0.1908709767
0.186191448
-0.220663313
-1.038691511
0.09497118414
-0.440699349
-0.2291183423
0.09295416207
-0.5623956442
-0.5504893139
0.140935149
-0.5210144979
0.4823892725
0.1423017641
-0.4052110225
-0.06862216104
0.05530851487
-0.4596987292
0.3778095188
-0.09351017602
-0.4104759849
0.3981535846
-0.03802828476
-0.1815310724
1.431362339
0.1273251351
0.1651693482
1.068350906
0.07340572152
0.3209154225
1.039299016
-0.1276265264
0.2680026267
0.3663353893
-0.2590520049
0.2563452674
0.6097775001
-0.1388403514
0.3732377882
0.4017899166
-0.02829484128
0.4473411447
0.5421386883
-0.03991193547
0.03721175314
-0.04436496684
0.3387156515
0.308593376
0.01496728377
0.3156519421
-0.659272911
0.06781019541
0.1017772254
-0.3021774743
0.0619893669
0.04089647473
-1.140184048
0.0854539741
-0.03095789688
-0.3635854228
0.1340580524
-0.1579304869
-1.191964975
0.07529882568
-0.2860115867
-0.2300854213
0.08793989889
-0.3956719203
-0.6821203403
0.09423997853
-0.4818581505
0.3390425814
0.1283662144
-0.3977176471
-0.01113634959
0.118676087
-0.2795512588
0.6397242862
-0.02475980039
-0.196779295
0.5167535872
-0.08359130539
-0.1590177467
1.345425073
0.02350371547
0.001346099543
1.071624892
0.07059195547
0.1570413171
1.235364918
-0.03484104521
0.2229589787
0.6375564349
-0.1725989906
0.2714823841
0.8375291291
-0.1402112044
0.3252518548
0.4991185839
-0.07040073247
0.3122200193
0.5283749318
-0.06881290578
0.01445785543
-0.04810929474
0.1942950647
0.2575565787
0.0650512958
0.1385156772
-0.8443630114
0.05617635062
0.02005786889
-0.3113933711
0.0452903456
0.007799149439
-1.086233483
0.0883851705
-0.01618075317
-0.3358924933
0.06565223643
-0.07764802758
-1.130448001
0.02084199219
-0.1407623743
-0.1897629232
0.04400075522
-0.2399172009
-0.7589617253
0.04403462583
-0.3482519651
0.2280362778
0.0866780593
-0.288083408
0.1205710969
0.1181864789
-0.1149567398
0.9865402029
-0.0005892594595
-0.02494400351
0.7044810537
-0.0960968089
-0.08019404029
1.21427243
-0.04169666331
-0.06324280355
0.9768092532
0.04514072687
0.05201869785
1.39761336
0.01757977611
0.1599840716
0.9009997641
-0.08183715601
0.2312109875
1.035881819
-0.1064439299
0.2390168279
0.5265249686
-0.08550969822
0.1720295001
0.4276334484
-0.08028101309
-0.05507584189
-0.04533133174
0.07832525677
0.04765562876
0.05660266039
0.03788668939
0.01868301134
0.02071712148
0.01719033462
0.04866599023
0.008314864334
0.01856503095
-0.01505588967
0.004973586519
-0.04545943844
0.02261156724
-0.09400324891
0.02110465498
-0.152562334
0.04311033272
-0.1173089364
0.05730008645
-0.0204550803
0.008561092136
0.01515405236
-0.04868614971
-0.03770054891
-0.03301124848
-0.0599094002
0.01793628907
-0.006256766979
0.02656990265
0.05924921699
-0.02084613714
0.1030496996
-0.04531732362
0.09182234563
-0.04908352305
0.04302164977
-0.04544326219
-0.02020880352
0.560213457
-0.2712411836
0.01624416899
0.1563503887
-0.4362451349
0.4358644212
-0.1260182385
0.125993736
0.2014480272
-0.1320644388
0.02984078815
0.6308837539
-0.2369780187
-0.1279919732
0.6298193601
-0.2180108886
-0.02097783181
0.5391284222
-0.08913040096
0.1029009656
0.3900365235
-0.1757619082
-0.1608279463
0.6025084948
-0.4373859228
-0.2177912597
0.7133359319
-0.2714853636
-0.1077910908
0.7515005065
0.03288899601
0.07636190612
0.5435985392
0.2680999984
-0.04711437953
0.2327625082
0.2034539928
-0.2951153234
0.3422184598
0.005996690121
-0.3777562878
0.4229748914
-0.01294977035
-0.1117537384
0.409307798
0.1306638505
0.09213655841
0.07201161182
0.1505001949
0.14210828
-0.2077744775
0.02742542369
0.01361589935
-0.3516981759
-0.1255219677
-0.02788704677
-0.2616618332
-0.02789932132
-0.1243968459
0.5156182997
-0.4140511202
0.01626196251
0.2982357173
-0.6590962561
0.4745811695
-0.09094849292
0.09630250968
0.236836957
-0.1810552223
-0.06479443445
0.6634143731
-0.2074690665
-0.1803947393
0.6253823842
-0.1933741562
-0.07340175421
0.5407493303
-0.1582294263
0.1185932501
0.4564429118
-0.2088593989
-0.2838676562
0.6786897441
-0.3855523046
-0.3775402434
0.7141366335
-0.2206350629
-0.2348087975
0.6362753393
-0.01190446536
0.05267533316
0.470345711
0.1647969685
-0.131902477
0.2634849381
0.1806513254
-0.5020831725
0.3913488197
0.08882173972
-0.6707598743
0.3804914903
0.07515059313
-0.2542792325
0.3169280146
0.1498083814
0.08992924606
0.02158075472
0.1120092649
0.1976153466
-0.1824451551
-0.005377076195
-0.003696605321
-0.2948236963
-0.1267896544
-0.05395607449
-0.2212899653
-0.0525280812
-0.1115008143
0.4371289295
-0.2880171176
-0.02770518814
0.4615284924
-0.5379802377
0.4671290898
-0.04622421853
-0.03833742657
0.193269334
-0.2217307192
-0.1951050399
0.606620755
-0.1695803936
-0.1334360413
0.5803391121
-0.1865244439
-0.1858468056
0.5433297225
-0.2673231878
0.07780029583
0.5417627813
-0.273282728
-0.2855804112
0.7824949996
-0.3119840977
-0.3724263755
0.6551891991
-0.1480952153
-0.353176157
0.4737020119
-0.07902509461
-0.09798952662
0.3668217692
0.007645420389
-0.2713214044
0.3290805863
0.1426196312
-0.5607731002
0.4630129973
0.2285432649
-0.8193567655
0.3454077702
0.2527513305
-0.4042338717
0.1717681995
0.1972824196
-0.05844641369
-0.04706746155
0.05685093779
0.1206983218
-0.15346377
-0.05091644741
-0.04887736476
-0.2118428826
-0.1189316923
-0.04446420229
-0.1721695627
-0.05972156415
-0.1041530028
0.3661683677
0.1208241043
-0.1206721458
0.5622893383
-0.1177707875
0.3991965961
0.0008500727676
-0.2047404648
0.09574556878
-0.2261303022
-0.2485722405
0.4761346231
-0.1274104719
-0.01227945497
0.5176564702
-0.1754753769
-0.2968231423
0.5440848241
-0.3437350318
0.02329585215
0.6207645204
-0.3485422839
-0.1525746896
0.8361796242
-0.267546598
-0.170973089
0.623097072
-0.09315924857
-0.4084617649
0.3491869609
-0.1410502058
-0.3559358633
0.3644076153
-0.1249990347
-0.479955801
0.412141983
0.07887676062
-0.545283007
0.5632746859
0.3421228152
-0.8175864334
0.3265645816
0.43019666
-0.5271947936
0.0914197642
0.2601166573
-0.323796905
-0.09680854781
0.02255073446
-0.06433209995
-0.1203726095
-0.0849795548
-0.1064738435
-0.1458295288
-0.1090160489
0.0198251749
-0.144962986
-0.03789491418
-0.1089920315
0.3280753576
0.5281169535
-0.1339984053
0.4946919116
0.2586242412
0.3725201366
0.0009640769747
-0.3333449881
0.05119719522
-0.217992844
-0.2697689668
0.4066172
-0.1410882758
0.1442316183
0.4924805071
-0.1598193302
-0.310508567
0.5580215599
-0.3558039745
-0.0114093004
0.5586482216
-0.4105921946
-0.02408170858
0.7764239105
-0.3296461144
0.1233401246
0.5606003672
-0.1214552909
-0.3673559065
0.3381836255
-0.1612265009
-0.5693980689
0.2840083777
-0.1866372188
-0.7384712881
0.439185442
0.04446293856
-0.5035601381
0.5634881657
0.41545643
-0.6938668788
0.3293842703
0.5700183008
-0.5572086427
0.03354179701
0.3543055835
-0.6259383204
-0.1216458666
0.06179993747
-0.3041210517
-0.1203596073
-0.06123176791
-0.1768802599
-0.1282504619
-0.09450618956
0.1140284059
-0.1504577414
-0.0002323860946
-0.1179406672
0.340285023
0.6144557347
-0.05461501447
0.2881830446
0.2796699687
0.4262554585
-0.01041801929
-0.3591999225
0.09787604025
-0.166570287
-0.3040942662
0.4483734252
-0.1608099412
0.3098276778
0.5278479996
-0.1269645743
-0.1681521768
0.5744679702
-0.2701422744
-0.03291861393
0.4331658322
-0.4179739644
-0.06782463745
0.6140296743
-0.4800283767
0.3345485159
0.5919902217
-0.247348123
-0.2477990697
0.4001094693
-0.2013277096
-0.6429693325
0.3281475078
-0.1805812744
-0.9465392287
0.3647974853
0.02888325439
-0.4995050962
0.5283535976
0.4074579254
-0.5228812259
0.2962746994
0.6092545713
-0.5061616249
0.0498023514
0.4346994651
-0.8554136023
-0.1130338982
0.1686438348
-0.5549304779
-0.142782792
0.01181876511
-0.2766771421
-0.1674147437
-0.09316307339
0.1649342532
-0.1754984976
0.02622443983
-0.1219502386
0.3237224592
0.4263496509
0.0293560534
0.04697383421
0.01802118257
0.4402263087
-0.01381921042
-0.1859378461
0.2088079508
-0.07634235345
-0.2889065584
0.5619167607
-0.194849247
0.4920854691
0.5109219524
-0.1644213134
0.07591328239
0.5757682523
-0.2104830902
0.04508795002
0.3211602397
-0.3943507684
-0.2041740156
0.4512490603
-0.6458452571
0.4117985383
0.5149742613
-0.4720494812
-0.1088257609
0.5021772858
-0.2565963812
-0.4633500988
0.2893096127
-0.09649959176
-1.025262933
0.2658384617
0.08948282148
-0.4746636629
0.3082951296
0.3737390225
-0.3980220051
0.2262010405
0.5619444386
-0.399245945
0.06856044806
0.5093426156
-0.9534409202
-0.06812722958
0.352009206
-0.7364021574
-0.1817967692
0.1444775734
-0.4183485894
-0.2360556916
-0.0808723045
0.1175268986
-0.2132113579
0.007500371458
-0.1167817873
0.3032871421
0.1847561821
0.008467075648
-0.06713376106
-0.268129454
0.3341438019
0.04394486515
0.1886670272
0.2751277932
0.07135046406
-0.1785098169
0.6536308559
-0.1923056615
0.640509824
0.4445837484
-0.2537955151
0.298107663
0.5513653748
-0.1981353229
0.2457280872
0.3568902438
-0.3216302604
-0.2516906794
0.3386177303
-0.7357728225
0.3653481459
0.4392841621
-0.7025391643
0.006684310107
0.5357622335
-0.3912266738
-0.1300636134
0.4382198507
-0.02241121188
-0.908713137
0.1611961975
0.1790336362
-0.4652076492
0.1241242221
0.3104155639
-0.3768109329
0.09205508065
0.4245077416
-0.3008125547
0.1353088498
0.5217594002
-0.8896417818
-0.001205463479
0.5359034061
-0.7861941538
-0.1809224747
0.3186139017
-0.5727387929
-0.2988728082
-0.05254515462
-0.03852444337
-0.2497861173
-0.06197055372
-0.1079382043
0.2834224987
0.08077351625
-0.1461662525
-0.05688911949
-0.4056919055
0.08279650414
0.1053924661
0.5873834847
0.2458041886
0.1934592411
-0.01551197359
0.6552123008
-0.1915579282
0.6655186829
0.327067496
-0.3944735855
0.3287083012
0.5218502505
-0.2715929927
0.5480494813
0.4387319118
-0.2722470355
-0.1050260609
0.3061534027
-0.7358338389
0.2931925444
0.2187037056
-0.8830932675
0.02656002707
0.4933114931
-0.5543675693
0.2247416904
0.498257717
0.017534028
-0.629322497
0.142867307
0.2962733422
-0.4165291511
-0.09753579909
0.2803149397
-0.4900075644
-0.05931771919
0.2767115632
-0.2736957298
0.1444195093
0.5032210821
-0.7497435607
0.100137341
0.6844679621
-0.6667874233
-0.1534256052
0.5018392436
-0.6845086282
-0.3338799149
0.0245657829
-0.235625005
-0.2882415091
-0.1812434925
-0.1041265973
0.3278593442
0.119808548
-0.3008515204
0.08434250454
-0.3916396316
-0.09755042866
0.1735784569
0.7992417451
0.1713610592
0.2523697088
0.1095580359
0.6029949363
-0.1545035235
0.5581806996
0.2516778897
-0.4641457879
0.1678790837
0.4645754201
-0.3640911529
0.8406779599
0.5370308422
-0.2772929088
0.1736693423
0.3222643541
-0.6850668954
0.2251130443
0.07628008106
-0.9669709125
-0.0940629953
0.3712643867
-0.7519225259
0.4526960803
0.5907178073
-0.05846668315
-0.2617335667
0.1534410843
0.3361561163
-0.2673909973
-0.1916762251
0.2573579409
-0.6782998817
-0.2122048983
0.1697672811
-0.3885411414
0.128165871
0.443558931
-0.5872503928
0.1679265534
0.7419669634
-0.4405664522
-0.1017229887
0.6265391773
-0.6872464944
-0.3493122933
0.1483063424
-0.4059206445
-0.32379683
-0.3006508748
-0.1142586709
0.3744237091
0.2424948151
-0.2742452171
0.2401061031
-0.3593769578
-0.05823332851
0.1929949291
0.8003919106
0.1206175536
0.2115392576
0.1589805522
0.5328604201
-0.1210834694
0.4685008217
0.2350966994
-0.4300415399
-0.01940485016
0.3864312854
-0.4493672621
1.043987158
0.5004184211
-0.4113407964
0.4316162964
0.3515974591
-0.6793352652
0.2201486709
0.01718316058
-0.9491588536
-0.2761747621
0.2476887203
-0.8655052499
0.5182999567
0.500467261
-0.2090059795
0.1084398204
0.189618837
0.2813653445
0.006371022674
-0.1778506487
0.2700433917
-0.8006055619
-0.2702402122
0.1822170323
-0.5217710673
0.04195373506
0.4282805426
-0.4513717781
0.1512136574
0.7283444344
-0.1653641781
-0.09274668284
0.6863461175
-0.5789146594
-0.3544490353
0.2977820346
-0.4737351291
-0.3552624654
-0.3846194919
-0.1370952594
0.4425950925
0.342591354
-0.07294847369
0.3822552292
-0.3855256094
0.2172861006
0.2304067253
0.7194131256
0.123706344
0.1485454197
0.1094447148
0.4966182172
-0.05486079642
0.4945464638
0.3261880852
-0.2822219721
-0.107349396
0.3230030999
-0.4826716575
1.025437937
0.3957962502
-0.6201065333
0.4784334572
0.3858012633
-0.7499611141
0.2688545179
0.1375259726
-0.8694876775
-0.4023778275
0.1675633616
-0.8819102254
0.5169424478
0.3205357605
-0.4026865217
0.405457691
0.1752729194
0.06760285786
0.3846271493
0.008951149803
0.2425544877
-0.713678725
-0.2157375661
0.2825619704
-0.5214385276
-0.04114172472
0.4524067588
-0.3270733042
0.02314231158
0.6555986286
0.08066049674
-0.1413715389
0.6534156729
-0.3895151661
-0.3538638764
0.4316177247
-0.4089078169
-0.3584590717
-0.3936624638
-0.1544137998
0.4565594093
0.3769890112
0.1550593081
0.4410510394
-0.4143022923
0.4933287989
0.2666063687
0.6796960333
0.09829266496
0.07633525787
-0.02126716415
0.4190943956
-0.004538560413
0.5983529746
0.4384487075
-0.1284460632
-0.09103746697
0.2737765822
-0.4799631241
0.7749319399
0.2069145284
-0.8440259115
0.2494893304
0.391601796
-0.879628799
0.3398232112
0.3064357466
-0.7376429457
-0.3633309609
0.1328518006
-0.7468720485
0.4955909796
0.01797144511
-0.5394984045
0.5160249591
0.1051760616
-0.2053507302
0.7395437969
0.1877719643
0.1830881228
-0.369216583
-0.05606713053
0.4421522535
-0.2763171734
-0.12140733
0.5466967449
-0.1958749101
-0.1573592585
0.5836074918
0.2413792855
-0.2343771775
0.5668645096
-0.1748678835
-0.3257189395
0.5316646096
-0.2321791977
-0.3042246972
-0.321453654
-0.141439506
0.5072842356
0.363999573
0.2251979391
0.532310696
-0.3967127326
0.595331963
0.3283510553
0.6252954945
0.04128960949
0.07142677691
-0.2542366132
0.3172697203
0.01247744996
0.5905599608
0.5242159335
-0.06209555006
-0.1386045858
0.2702647176
-0.4763325718
0.3775353002
0.09953637113
-0.9569655912
-0.1459487804
0.3740690674
-0.9621908192
0.3939369812
0.467627509
-0.6378107175
-0.1717010158
0.1374537548
-0.5757822042
0.4563994026
-0.2209445439
-0.6253269887
0.4084619818
0.004660070425
-0.4900594922
0.9359808749
0.3351808151
0.05131058656
0.1545772973
0.115595843
0.5382579295
0.1915522387
-0.1511085586
0.6498567703
-0.04419528106
-0.3347753976
0.5283963745
0.3090978346
-0.3151863351
0.4733628694
-0.02609430354
-0.2604360383
0.5727594269
-0.01228253761
-0.1986245342
-0.2051995005
-0.09293827182
0.5309053364
0.3693315317
0.1264883308
0.583145334
-0.3586368478
0.4456452271
0.3176599033
0.4420018942
-0.05531866846
0.07395968421
-0.5726151146
0.1614345485
-0.01503008784
0.328002448
0.4912421534
-0.1088319956
-0.3746095658
0.2398327412
-0.4850968124
-0.0135003403
0.04431989776
-0.9406485271
-0.5282197204
0.2987866969
-0.9512576969
0.4186432757
0.4561723575
-0.5550145286
0.05936766597
0.1295280373
-0.4247689639
0.433792405
-0.3425901423
-0.5878827006
0.1807672964
-0.1153893483
-0.6181805156
0.9664430419
0.3220713012
-0.06576771613
0.7087045155
0.221587388
0.5288341755
0.7838264066
-0.1423266318
0.6956931335
0.1495653951
-0.4421209565
0.5069917073
0.3156691601
-0.3445788655
0.4083432175
0.03714793301
-0.16314553
0.5610786775
0.2082857153
-0.06420687143
-0.09125751839
-0.03265961898
0.5766981364
0.4137151314
-0.009721217463
0.6175775871
-0.390266366
0.2145074989
0.2856941941
0.09654978944
-0.1095043637
0.1050464786
-0.8845482747
0.1023654668
-0.04259638503
-0.09434061759
0.4227933973
-0.1851653367
-0.7755980345
0.2193680446
-0.4620955525
-0.2616838571
0.09622801636
-0.8010917281
-0.7702188713
0.228788682
-0.8706029972
0.4072561444
0.3560707298
-0.5562243523
0.1991034364
0.1531498683
-0.3653911336
0.4516276965
-0.2374384212
-0.4668560794
0.001750596811
-0.1780607337
-0.5733858447
0.942350891
0.1922770273
-0.1834297036
1.078446785
0.2270125709
0.3679541939
1.30334068
-0.06831184254
0.6179160514
0.4224122972
-0.4156285937
0.4838303535
0.3664654302
-0.3302464991
0.3804284247
0.0729244063
-0.1053811028
0.5229290501
0.3507879438
-0.001146333204
-0.004742149104
0.002451542715
0.5180792448
0.4492656975
-0.03917071494
0.5020525294
-0.5092417323
0.04883918532
0.1778339148
-0.2552992537
-0.125998125
0.07950455838
-1.056007709
0.09761732438
-0.05509350127
-0.4500401566
0.3066925419
-0.2119735962
-1.128879315
0.1343761651
-0.3934666702
-0.3491466618
0.1049842995
-0.5871473062
-0.8527458444
0.1299151195
-0.7170084401
0.3494617444
0.1933159577
-0.5887960753
0.1816620078
0.1787566683
-0.3513202737
0.5923424465
-0.05912491706
-0.2378474863
0.07434736156
-0.2061580426
-0.3264393104