/*--------------------------------*- C++ -*----------------------------------*\
| =========                 |                                                 |
| \\      /  F ield         | OpenFOAM: The Open Source CFD Toolbox           |
|  \\    /   O peration     | Version:  5.x                                   |
|   \\  /    A nd           | Web:      www.OpenFOAM.org                      |
|    \\/     M anipulation  |                                                 |
\*---------------------------------------------------------------------------*/
FoamFile
{
    version     2.0;
    format      ascii;
    class       volVectorField;
    location    "4";
    object      U;
}
// * * * * * * * * * * * * * * * * * * * * * * * * * * * * * * * * * * * * * //

dimensions      [0 1 -1 0 0 0 0];

internalField   nonuniform List<vector> 
30538
(
(0.009721053399 -0.001306420658 0.004013400193)
(0.01153947513 -0.003119114646 0.0145343562)
(-0.0007445624373 0.001792966742 0.009622498785)
(-0.005753988402 -0.0005615205129 0.01031624738)
(-0.01186257212 -0.001012149191 0.01130162924)
(-0.005814958917 -0.000870386153 0.01112025155)
(-0.01898050847 -0.001139124186 0.009895653212)
(-0.006869603519 -0.004752304356 0.01565885478)
(-0.02270329596 9.24456103e-05 0.01843612493)
(-0.004935860425 0.002354013286 0.01600879199)
(0.00352528477 0.002249242633 0.0105953473)
(0.01367558406 -0.004620441084 0.005348963157)
(-0.002692838989 -0.005174754771 0.01118126711)
(0.01486357486 -0.002216321397 0.01329815959)
(0.01127724857 0.003360210798 0.006996184137)
(0.02622701535 0.00155841856 -0.001515497844)
(0.009890697484 -0.0004807203103 -0.006812701986)
(0.00690475881 -0.00236046949 -0.004975237419)
(-0.009268407843 -0.0008865468442 -0.006319027731)
(-0.01779489088 -0.0003570544671 -0.001898597273)
(0.006666877803 -0.002853127472 0.002119124319)
(0.01367593226 -0.007016876304 0.01193702938)
(0.00105448434 0.004547406715 0.01022986623)
(-0.007723043524 -0.001331850421 0.01125506885)
(-0.01207168286 -0.003659681089 0.01067844529)
(-0.005914249013 -0.002172278725 0.01143326869)
(-0.02171714787 -0.004928201305 0.01193958086)
(-0.005973170927 -0.01188130886 0.01668556564)
(-0.01769722139 -0.00360976363 0.01705957453)
(-0.003391184809 0.005293336374 0.01392418301)
(-0.001422593935 0.0005291044485 0.01092676399)
(0.008430583245 -0.0123594726 0.007412526527)
(-0.001003354021 -0.0175244753 0.01170729875)
(0.02088160466 -0.00784083058 0.01118874607)
(0.01392837388 0.003401493483 0.004698895818)
(0.02349294273 0.001850724357 -0.001378749528)
(0.007107909687 -0.003096832405 -0.005057976392)
(0.006619418884 -0.005862508539 -0.003521173661)
(-0.007797847727 -0.002737039775 -0.006001094017)
(-0.01699253277 -0.0005632797707 -0.001959723993)
(0.002942755301 -0.001316389794 -0.001080783135)
(0.01665268967 -0.006747089867 0.007930526608)
(0.003285442888 0.0064803248 0.009565060768)
(-0.01154630892 -0.002070843821 0.01119088044)
(-0.01244508703 -0.002864431021 0.01002558728)
(-0.006714891571 -0.003479463594 0.01163622444)
(-0.02582094357 -0.001701117872 0.01424609228)
(-0.005922145229 -0.01281484613 0.01771799859)
(-0.01062723328 -0.002501375538 0.01451365522)
(-0.001947604005 0.002733755628 0.01059419899)
(-0.008957362911 -0.0001100620903 0.0113703028)
(0.0009672917054 -0.01784533237 0.01053045671)
(0.0004684059089 -0.02137363758 0.01278532591)
(0.02960681283 -0.01540764259 0.0083484372)
(0.01809259388 -0.001228360714 0.002140635854)
(0.02162734875 -0.003080301317 -0.0003789888539)
(0.004449758118 -0.003892003102 -0.002027683958)
(0.007143641503 -0.007079006352 -0.00164930632)
(-0.005427870428 -0.002008881012 -0.005716439121)
(-0.01572613467 -0.001101159899 -0.002274355768)
(0.001231647997 0.001442818288 -0.00418624264)
(0.01902544175 -0.00383742904 0.004274530336)
(0.004406556818 0.002877539838 0.007731302836)
(-0.01431671211 -0.004746540959 0.01007826231)
(-0.01303792591 -0.00275740206 0.009543253238)
(-0.005116638067 -0.005860608067 0.01134339324)
(-0.02831163915 0.002654154297 0.01478202485)
(-0.006522316849 -0.005348217315 0.01773035345)
(-0.006770600799 -0.004129982496 0.01190871866)
(-0.001606169175 -0.004680173434 0.007600866339)
(-0.0159741165 -0.007452039093 0.01169008206)
(-0.006545778818 -0.01909887878 0.01346851809)
(0.0006917813306 -0.02200163122 0.01386875456)
(0.03509024977 -0.02120565314 0.006293193763)
(0.02260444965 -0.01138569848 0.0001840804479)
(0.02159890792 -0.01049617791 0.001142105351)
(0.004282451645 -0.00512824271 0.0002703985137)
(0.007923393816 -0.00581613254 -0.0001915432969)
(-0.003421201355 -0.0009820819868 -0.005939102085)
(-0.01517262295 -0.001689946175 -0.002418675047)
(0.001531580508 0.004847187416 -0.003955603184)
(0.0175206048 -0.000723599296 0.003997047443)
(0.002707485386 -0.002990938398 0.006049458339)
(-0.01554376905 -0.009013032667 0.009896787159)
(-0.01319216984 -0.0001441835716 0.009966956111)
(-0.002923644158 -0.008057167396 0.0106106974)
(-0.02547173189 0.009443597437 0.01335984374)
(-0.01068827275 0.005199289632 0.01636152342)
(-0.01017849739 -0.0006546520583 0.01108819395)
(-0.004200666287 -0.01347762685 0.006520440855)
(-0.01916624219 -0.01182423767 0.01119783075)
(-0.009282261034 -0.01767835476 0.01439149613)
(-0.001044216658 -0.01390694353 0.01424541269)
(0.03709357525 -0.02309602125 0.005275179701)
(0.02562897793 -0.01900259359 -6.521273054e-05)
(0.02603730402 -0.01831382839 0.002199762832)
(0.007769737534 -0.004913360182 0.001291602718)
(0.01005245042 -0.003874894743 5.533057134e-05)
(-0.002327861441 0.0005422606576 -0.005658206687)
(-0.01427262791 -0.002933607364 -0.002267235526)
(0.004400410759 0.007112141559 -0.0003985262127)
(0.01339836377 0.001485861046 0.006799090732)
(-0.001368949137 -0.008490053081 0.004781970167)
(-0.01234548674 -0.01227211714 0.01062043637)
(-0.0123383245 0.003803728524 0.01077018955)
(0.001627926637 -0.007099086882 0.009960662912)
(-0.0189620528 0.01043938732 0.01019483866)
(-0.01363038994 0.01097208501 0.01417199349)
(-0.0199645953 0.00354774975 0.01204564307)
(-0.009410248682 -0.01800667824 0.007692994561)
(-0.01895778477 -0.01707968647 0.01029602445)
(-0.008016398013 -0.01530060535 0.01252772878)
(-0.003154753021 -0.006112280125 0.01247961227)
(0.03148526609 -0.02118499206 0.005231563559)
(0.02595018705 -0.02502429684 0.0009475033871)
(0.03155685535 -0.02512394138 0.002720128416)
(0.01451656731 -0.007159256695 -2.759872927e-05)
(0.01176127303 -0.003222509062 -0.0004911808488)
(-0.002574254388 0.0008187524722 -0.005078919515)
(-0.01392427535 -0.004039630975 -0.001218320605)
(0.007824651077 0.009525094539 0.003032352193)
(0.006452139156 0.001880721024 0.009142932128)
(-0.006915180443 -0.006527143263 0.003844327554)
(-0.006931089755 -0.01140750772 0.01127894109)
(-0.009535433456 0.01231329376 0.011389141)
(0.001756233875 -0.002236800553 0.009736707685)
(-0.01270693378 0.009766585034 0.007180961134)
(-0.01553595855 0.009810929914 0.01070817586)
(-0.03062887891 0.0116666639 0.01330716162)
(-0.01870266004 -0.01580308061 0.01039460393)
(-0.01726925927 -0.01613520871 0.009180060708)
(-0.001556709772 -0.01421846072 0.008245041438)
(-0.005225683299 0.0008364809555 0.008946218918)
(0.02372469595 -0.0176065344 0.006094053785)
(0.02281420023 -0.02599962582 0.003743423868)
(0.03868412325 -0.03027579113 0.002711938484)
(0.02329659158 -0.01185704428 -0.002158350665)
(0.0156815281 -0.005691698722 -0.001833568122)
(-0.002736755868 5.471315476e-05 -0.003500447023)
(-0.0124111841 -0.005110434179 0.0001917684501)
(0.01264552833 0.01212660983 0.003732695534)
(0.002023308271 0.001587115773 0.008722689404)
(-0.01063544189 0.002128886535 0.002551295883)
(0.0008922406814 -0.005868918387 0.01103882832)
(-0.005867232226 0.02004391148 0.0110203967)
(-0.0001840138865 0.004383508164 0.01016248169)
(-0.01044218682 0.009023649438 0.004780336164)
(-0.01227527034 0.005465031616 0.006802459818)
(-0.03803447162 0.01785897603 0.01267892298)
(-0.02899276261 -0.008231703314 0.01285823457)
(-0.01784807055 -0.01013038237 0.008662528628)
(0.003934881051 -0.01459559707 0.003149299357)
(-0.005568409819 0.002879788007 0.004137602695)
(0.01252172483 -0.01381156873 0.006958207429)
(0.01697726268 -0.02343182939 0.006768551941)
(0.04157428855 -0.03199344929 0.002946273259)
(0.03193937341 -0.01698600064 -0.004843036529)
(0.02017511822 -0.01026328089 -0.003165490602)
(-0.00200819691 -0.001501309229 -0.002298375676)
(-0.01072469721 -0.005314170023 0.001960614422)
(0.01768964782 0.01333774876 0.001538274229)
(-0.0006569633805 -0.001329816953 0.005907302891)
(-0.01205712918 0.01333258624 0.002136606708)
(0.00565858686 0.001277564234 0.01003870351)
(-0.002306538059 0.02471284105 0.01072528951)
(-0.006032992132 0.009975647758 0.01099774862)
(-0.01192647089 0.01322921032 0.00415406868)
(-0.009272545115 0.002599153592 0.003359208254)
(-0.04028260271 0.02046788577 0.0107922707)
(-0.03843277485 0.0005793894465 0.01396896797)
(-0.0217732104 7.501723278e-05 0.009075002386)
(0.007593076614 -0.01408459501 -0.0008818233688)
(-0.004691023924 0.0003089828 -0.0002158409208)
(0.005132388091 -0.01212754701 0.007299172834)
(0.009948557061 -0.01717596653 0.01012374888)
(0.04326511074 -0.02894922366 0.00346176838)
(0.03869074058 -0.0190217405 -0.006562150514)
(0.02662465002 -0.0147752117 -0.004809851134)
(0.000906743273 -0.003181208645 -0.001730932731)
(-0.007928768577 -0.004813980446 0.002720017801)
(0.02131369816 0.00934642864 -0.001422116031)
(0.001944786791 -0.008751315207 0.003460706577)
(-0.008679470512 0.01960984549 0.002700387096)
(0.00888737419 0.005600179272 0.008887884858)
(0.000266103342 0.02264557805 0.009922360745)
(-0.008287246889 0.01103070758 0.011177774)
(-0.01564584345 0.02080908356 0.004083788756)
(-0.007128022568 0.00200643058 0.001740787273)
(-0.03943548672 0.01741477877 0.007831165557)
(-0.04337173149 0.005700983216 0.01354787242)
(-0.02822096957 0.01219804317 0.009367894075)
(0.004062467093 -0.01187044816 -0.002838939323)
(-0.00420014581 -0.004882786167 -0.003531552722)
(0.000160644675 -0.01385508734 0.006670100379)
(0.005074521101 -0.009089253302 0.01127462038)
(0.04028826672 -0.02094549149 0.00384879665)
(0.04197569645 -0.01645306619 -0.007846578284)
(0.03137079002 -0.01768696058 -0.006239496783)
(0.005172889638 -0.004581373589 -0.002922615098)
(-0.005376326032 -0.004308148756 0.002575199962)
(0.01832052654 0.003431697195 -0.002088083643)
(0.006466005055 -0.01800599596 0.003625339785)
(-0.001828958402 0.02128987373 0.004324935057)
(0.00778019744 0.006528404473 0.008133427595)
(0.001524607074 0.01802604103 0.009420599844)
(-0.007315487806 0.00900772478 0.009804547657)
(-0.01831237929 0.02874317074 0.004817697386)
(-0.01161323598 0.003366882312 0.002448289037)
(-0.03765150985 0.01076316989 0.006062033528)
(-0.04211206045 0.006270837694 0.01095168784)
(-0.03419518772 0.02213054126 0.009058739095)
(-0.004507508576 -0.00709948265 -0.002473941856)
(-0.006098024882 -0.009508934137 -0.003589237238)
(0.002147212684 -0.01663908385 0.004991424834)
(0.00491929071 -0.001836915502 0.009862802644)
(0.03805832896 -0.01020136965 0.00291226102)
(0.04099138548 -0.01058826634 -0.007707266108)
(0.03500995405 -0.01845433317 -0.007477321503)
(0.01049708211 -0.006738262749 -0.00484011027)
(-0.001916573492 -0.004549216639 0.0009050313767)
(0.01124916287 0.0007009254644 -0.0003318303861)
(0.01437777953 -0.02372154047 0.006596710983)
(0.008725702554 0.02071476275 0.005396977677)
(0.006565819444 0.00524135231 0.008067586213)
(0.002018043842 0.01441580403 0.008739766818)
(-0.0007065613556 0.005525703718 0.007586624938)
(-0.0196496948 0.032143384 0.005300810725)
(-0.01975249326 0.003251759308 0.00553942191)
(-0.03737976051 0.005389403813 0.005482647131)
(-0.03534171795 0.003244188123 0.007293904844)
(-0.03767542731 0.02998021012 0.006191808185)
(-0.01831564275 -0.001215362404 -0.0003179563549)
(-0.01093589883 -0.007907979777 -0.001377912102)
(0.005553983334 -0.01677604876 0.002686457465)
(0.009596792117 0.005565804493 0.004400809271)
(0.03408739897 -9.284625587e-05 0.0006497336259)
(0.03612573811 -0.003068714146 -0.007592072064)
(0.03407924344 -0.01823558936 -0.007452221479)
(0.01512506779 -0.009541376466 -0.00721160128)
(0.002367633449 -0.006338298238 -0.0008389825167)
(0.002301276541 0.004866856754 0.002280172283)
(0.02039902916 -0.02053922449 0.009481767081)
(0.01869941711 0.02169752479 0.005810937021)
(0.003312178565 0.003393257594 0.007832249792)
(0.001725895346 0.01587890076 0.008978071857)
(0.005221746184 0.003238361724 0.005206991732)
(-0.01992672111 0.02838102967 0.006363243373)
(-0.03042903559 0.001485841155 0.009251315092)
(-0.03766519458 0.005034611788 0.006958345322)
(-0.02474821383 0.001111421389 0.003025536806)
(-0.03734969685 0.03202948354 0.002468406472)
(-0.03129570152 0.005338328658 0.002858385835)
(-0.01709291506 0.0002124899722 0.003591265528)
(0.01163184679 -0.01137930748 0.0001233809929)
(0.01667223905 0.01126061411 -0.002293315305)
(0.03194189196 0.007403643676 -0.003357314997)
(0.02814103619 0.001951213358 -0.00636619395)
(0.03041742321 -0.01691507573 -0.006227587263)
(0.01901172283 -0.01202290285 -0.007591219063)
(0.009107162967 -0.007919431442 -0.002576629723)
(0.0004161981176 0.01224721714 0.003172216221)
(0.02609205166 -0.01059460792 0.01021138969)
(0.02570656348 0.0219601981 0.005547632978)
(0.002434948138 0.0002606881538 0.00732536499)
(0.00190722071 0.01906974893 0.009345749196)
(0.008134411621 -0.0001715991637 0.004091061804)
(-0.02087398091 0.01812834641 0.006469311674)
(-0.03615836812 -0.002833132853 0.01187150541)
(-0.03766456206 0.009584776194 0.007651987165)
(-0.01628948203 2.955840406e-05 -0.0002925123343)
(-0.03468346766 0.02799862315 -0.001759134459)
(-0.04080915106 0.01007147281 0.005451512879)
(-0.02277104769 0.01411491634 0.007818729386)
(0.01331696209 -0.00156675465 -0.001411538628)
(0.02282734869 0.01657186655 -0.009148254653)
(0.02751606827 0.009837900339 -0.007418417594)
(0.01891751916 0.005317767446 -0.005453364599)
(0.02418468799 -0.01421582292 -0.003277278959)
(0.02157448144 -0.01077894766 -0.006766744561)
(0.01628105242 -0.008648468774 -0.002921374005)
(0.003700570124 0.01725649247 0.002258623587)
(0.02714661061 -0.001863250874 0.008153705194)
(0.02645690818 0.01842248908 0.005610939298)
(0.001239924382 -0.005963513384 0.005845806275)
(0.001422302018 0.01825278699 0.009522661554)
(0.004579373084 -0.006369620769 0.003805365174)
(-0.02177803087 0.006490864899 0.006556744381)
(-0.03638863648 -0.006650733719 0.01175896483)
(-0.03567307963 0.01541582508 0.008034971442)
(-0.01175704954 0.0005169677829 -0.00194731493)
(-0.03023817919 0.01940751056 -0.003888939407)
(-0.04113360156 0.01223130911 0.006034949135)
(-0.02536155821 0.02763409572 0.01075900829)
(0.01331167173 0.01131022749 -0.001466938261)
(0.02469462086 0.02008734568 -0.01223651886)
(0.02401500642 0.008574623832 -0.01056581331)
(0.01113300366 0.007703621006 -0.00405432321)
(0.01902493008 -0.007672412833 -0.0001921433273)
(0.02302855489 -0.004154610379 -0.004189248152)
(0.02265025827 -0.00649983974 -0.002703230483)
(0.01152247812 0.01704924568 0.0005332171843)
(0.02684661455 -0.001544497399 0.005504365116)
(0.02292096703 0.009862285459 0.00562586356)
(0.0022724511 -0.01727469116 0.004166068792)
(0.001626042682 0.009996625136 0.008634148948)
(-0.0001379618968 -0.01706492584 0.004037547587)
(-0.02104644799 -0.002597432927 0.00563149359)
(-0.02979633359 -0.01086981831 0.009551849222)
(-0.03263522382 0.0190380184 0.006555061924)
(-0.01347097804 -0.0009844062739 -0.001174722386)
(-0.02638691834 0.01184601527 -0.004669519643)
(-0.03504716239 0.01187800319 0.00442595453)
(-0.02348533822 0.03999253753 0.009618068847)
(0.007931135722 0.02368471345 2.747666881e-05)
(0.02086787799 0.02424930381 -0.01178204785)
(0.01879756267 0.006601295491 -0.01122096774)
(0.007437819323 0.01148258873 -0.004155817614)
(0.01578793952 0.001983490105 0.001155645775)
(0.02249033988 0.007066221458 -0.00287792443)
(0.02358437246 -0.002567076078 -0.0020074721)
(0.01489149225 0.01363515546 -7.585794962e-05)
(0.02201358331 -0.008389575869 0.00335921842)
(0.01547818085 -0.0004947220464 0.005244567402)
(0.001296535509 -0.02827603915 0.002451917342)
(0.001585723118 -0.001392563077 0.006549859604)
(-0.004285741837 -0.02834569952 0.003404114534)
(-0.01739677078 -0.006727554186 0.004791004368)
(-0.02106582578 -0.01488750108 0.006024267606)
(-0.02871512801 0.01701134243 0.005536456086)
(-0.01683000104 -0.002439415966 0.001156919009)
(-0.02114872976 0.009240761414 -0.003320937253)
(-0.02130376746 0.01229566909 0.00043608457)
(-0.01707696942 0.04564029321 0.006331781437)
(0.002147442578 0.03206824435 0.002076457316)
(0.01260332471 0.02894249687 -0.007005000549)
(0.01501863153 0.008242508689 -0.009594524421)
(0.007873784126 0.01644567909 -0.004664922684)
(0.01588676824 0.01074807813 -0.0004372708413)
(0.01990907078 0.01566315292 -0.002813463682)
(0.0191954824 0.0009018555307 -0.002041908843)
(0.0154738576 0.01037876422 0.0005770436939)
(0.01680858153 -0.01745100464 0.002781718824)
(0.009010228621 -0.008262927463 0.004164834698)
(0.001611963918 -0.03580575323 0.002290718455)
(0.001596859534 -0.01033806738 0.004133439825)
(-0.003892056183 -0.03658640265 0.002801661542)
(-0.01155635758 -0.007420898379 0.003646182196)
(-0.01300040712 -0.01969294919 0.003697069852)
(-0.02385248103 0.01318285485 0.004301701756)
(-0.01896029401 -0.00225354673 0.003859854219)
(-0.01599413361 0.01551324045 -0.001811867908)
(-0.009374105012 0.01412404896 -0.002548407917)
(-0.009549910592 0.04546435749 0.001761647698)
(-0.003891827309 0.03486332268 0.003236790633)
(0.004015313546 0.03617966951 -0.002337434361)
(0.00997332034 0.01550971827 -0.006412462924)
(0.009208014791 0.02358775274 -0.005692078904)
(0.01521280378 0.01554977406 -0.002597348802)
(0.01563742168 0.01856145814 -0.003966594213)
(0.0115729521 0.001388653709 -0.001924726349)
(0.01009850478 0.008442908471 0.001735531684)
(0.008699996948 -0.02480217767 0.001981611173)
(0.002537155086 -0.01055603103 0.002624694665)
(-0.0002842177402 -0.03628892181 0.001997295665)
(0.001002079476 -0.01197845033 0.002233642806)
(-0.002230358474 -0.0373413135 0.00139028824)
(-0.005443721186 -0.006603193684 0.002832953951)
(-0.006413912603 -0.02291335416 0.001788663962)
(-0.01631486365 0.008720554685 0.003355711845)
(-0.01513160288 0.001464500384 0.004433729661)
(-0.009586645523 0.02596628793 1.156858699e-05)
(-0.0001965610009 0.01985998781 -0.003854577386)
(-0.002479045091 0.04109282906 -0.0007425842305)
(-0.004467339244 0.03293917109 0.002734574445)
(-0.0011047634 0.0418579375 0.001081615207)
(0.006125064141 0.02437053975 -0.003036122863)
(0.007937113322 0.02992430117 -0.004342411383)
(0.01237746829 0.01696941123 -0.003593624209)
(0.01005582612 0.01581423951 -0.003892400152)
(0.004838004508 -0.0003978906511 -0.001952640358)
(0.004130312496 0.008115386594 0.001181122252)
(0.003537709571 -0.02823794048 0.001071633185)
(0.001140440047 -0.00874776493 0.0007678289237)
(0.0007699243598 -0.03296853653 0.0008336541915)
(0.0009507369598 -0.00899760594 0.0002231838367)
(-8.045693786e-05 -0.03549654099 0.0002597660815)
(-0.001483523686 -0.005766508208 0.0008885484525)
(-0.002319552323 -0.0258696892 0.0006059889876)
(-0.006804284942 0.006126622204 0.00116369134)
(-0.006930939713 0.006624669929 0.002103117363)
(-0.003042269537 0.03706250372 -6.224980751e-05)
(0.001360113066 0.02450451005 -0.002129551457)
(-0.0002228355238 0.03555149863 -0.001404835455)
(-0.003273925365 0.02857492752 0.001356891915)
(-0.001999155973 0.04674013517 0.001150664697)
(0.001510913964 0.03309535398 -0.0006459762288)
(0.003862696588 0.03588014928 -0.002159415922)
(0.005080473509 0.01608435327 -0.00196205376)
(0.003304157944 0.01080538547 -0.002205735353)
(0.0004102119746 -0.003283467243 -0.000738063161)
(0.0350774399 -0.004920497098 0.004296016319)
(0.01891750173 -0.008057201421 0.03117472868)
(-0.006226165425 0.002940160386 0.01399733112)
(-0.003478056447 0.001219192336 0.02932774524)
(-0.01073817089 -0.002203213889 0.02594112477)
(-0.00771831309 -0.0002763729908 0.02814335147)
(-0.01295813766 0.002744172573 0.01915442139)
(0.004591096729 -0.002795497557 0.03528936293)
(-0.0222563472 -0.00251756189 0.0390963322)
(-0.01532610847 -0.001608386609 0.04045712694)
(-0.01074631227 0.002861456337 0.02443135222)
(0.01452809873 -0.0007023168009 0.01070904824)
(0.007936735074 -0.004164980757 0.02529488746)
(0.009268308164 -0.006216745723 0.03177021959)
(-0.008594778033 -0.001009643057 0.02122958657)
(0.007685260166 0.00180762395 -0.004449267827)
(0.005194429874 0.002842125617 -0.01519217856)
(0.007358300078 0.0003948275488 -0.01929262248)
(-0.00497765868 -0.0002811760201 -0.01203923031)
(-0.007017152695 -0.0004755543094 -0.008056608)
(0.02595611265 -0.01257354223 0.001448129985)
(0.02438235347 -0.01958304927 0.02857683295)
(0.0003004564077 0.00441634179 0.01577475477)
(-0.007099260622 0.0003148452265 0.03161662611)
(-0.01178033425 -0.006113559021 0.02580457688)
(-0.004238869698 -0.001199217085 0.0283207929)
(-0.01473013902 0.003332655214 0.02203028919)
(0.0009083186914 -0.00795967124 0.03871375829)
(-0.02142029248 -0.01105538674 0.03634522447)
(-0.01151810758 -0.004993407448 0.03275416968)
(-0.01014736475 0.001975414265 0.02265381577)
(0.009563139532 -0.002522840729 0.01444044657)
(0.004042753947 -0.0144592296 0.02634042382)
(0.01148958504 -0.0172362764 0.0251668361)
(-0.002939012546 -0.005835108554 0.01478688943)
(0.01038273198 0.003985990655 -0.004604804925)
(0.004182338201 0.005970831715 -0.01018485683)
(0.005145482589 0.0004419969459 -0.01490620913)
(-0.005549842973 -0.001585207605 -0.01031501399)
(-0.006546918492 -0.001283130491 -0.0080833516)
(0.01248416668 -0.0133488718 -0.004349996779)
(0.03071989552 -0.02135072761 0.0226511903)
(0.007795456235 0.001696422438 0.0137556906)
(-0.01092626263 -0.004340854883 0.03004941213)
(-0.0117864061 -0.005058188768 0.02390683308)
(-0.001066264223 -0.00365723335 0.02832530159)
(-0.01771465918 0.003687772266 0.02578456407)
(-0.005545313669 -0.01083976804 0.04247391232)
(-0.02019154639 -0.01230740135 0.02979970801)
(-0.006090432057 -0.009294434213 0.02284527991)
(-0.009057175527 0.001309642791 0.01928503201)
(0.002956173614 -0.006361775564 0.02134843961)
(-0.002451287115 -0.01726869955 0.02700790102)
(0.0153420797 -0.02471130597 0.01808428736)
(0.00637916527 -0.009812873738 0.006233572253)
(0.01601137567 0.001690838246 -0.004008824384)
(0.002691360317 0.006213264795 -0.004383172565)
(0.001983116325 -0.0007729405859 -0.009880830445)
(-0.006131171735 -0.001878312156 -0.009123227193)
(-0.005219944453 -0.001978421239 -0.008440143099)
(0.001631549599 -0.004040325482 -0.01105540483)
(0.03476288588 -0.01134412253 0.0157873789)
(0.01230586536 -0.003845818537 0.008919839308)
(-0.01190398167 -0.007244668808 0.02520320279)
(-0.01126232929 -0.0028970515 0.02180565577)
(0.001898703192 -0.007808814534 0.02784454872)
(-0.019788215 0.0009571715088 0.02936846041)
(-0.01036885116 -0.007933598102 0.04385241472)
(-0.02036761252 -0.01065832052 0.02612893982)
(-0.00184870814 -0.01242837283 0.01507555621)
(-0.008128482546 -0.007804353359 0.02172189571)
(-0.003518177221 -0.01178232581 0.02817161731)
(-0.008912883365 -0.01924060473 0.03155068317)
(0.01675342566 -0.02704900389 0.01352456631)
(0.01569228732 -0.01558566481 0.002435751992)
(0.02168946335 -0.005603746532 -0.002586859538)
(0.002432698076 0.001164725708 0.0006184064353)
(-0.0006218494274 -0.002597298058 -0.006817761368)
(-0.006289520809 -0.0008525041336 -0.008773624088)
(-0.004150603755 -0.001680467739 -0.009279090509)
(0.001847249299 0.01207790515 -0.01091854288)
(0.03070527753 0.004075699965 0.01498337095)
(0.01071751349 -0.008638128233 0.005269654696)
(-0.01031543524 -0.008003313533 0.02287914546)
(-0.01213763524 0.002164123285 0.02085834879)
(0.001618299741 -0.01068683746 0.02694988796)
(-0.01779192658 0.0007194849335 0.02541449149)
(-0.01374337195 -0.001572705856 0.04062834572)
(-0.02339715634 -0.0004115277809 0.02236732885)
(-0.004013158528 -0.01330913247 0.01414308206)
(-0.008627560532 -0.01448296622 0.01817655571)
(-0.005092147504 -0.01948890735 0.03023753566)
(-0.01324613134 -0.01656599996 0.03005007857)
(0.01792207395 -0.02512640245 0.01227333399)
(0.02151112415 -0.01756248 0.0004229149742)
(0.02783058717 -0.0153198932 -0.001406003658)
(0.004819955761 -0.005483225953 0.0008296330667)
(0.0005209629514 -0.004460296616 -0.006640681521)
(-0.005332253554 0.002198082369 -0.009405357383)
(-0.003811317777 -0.0006553006479 -0.009359863085)
(0.01327170484 0.02044933535 -0.003655069814)
(0.02016106916 0.01128849334 0.02038188934)
(0.00385750659 -0.01271809004 0.005356793009)
(-0.004350236565 -0.009646380375 0.02475527945)
(-0.01311157783 0.006479776689 0.02287424427)
(0.0008512224272 -0.008772445754 0.02613830693)
(-0.01333578064 -0.0012992863 0.01901980356)
(-0.01117537582 0.0002136869429 0.03275368537)
(-0.02867870952 0.007755814045 0.0260309195)
(-0.01172332798 -0.0106540592 0.01858591179)
(-0.01249315123 -0.02091898592 0.02022990152)
(-0.00497817405 -0.02700018921 0.02431294665)
(-0.01292548329 -0.01620794218 0.02780404729)
(0.01603778465 -0.01965709457 0.01193718209)
(0.02260332203 -0.01781410226 0.004624427576)
(0.03021992344 -0.02416134189 -0.0009701350047)
(0.01013062509 -0.01370979378 -0.001392715447)
(0.004795166856 -0.006818767025 -0.009348582045)
(-0.003432062599 0.004941137558 -0.008965736952)
(-0.005636771868 0.0006335913562 -0.00843287219)
(0.02445676373 0.01741351553 0.00352714923)
(0.00740845423 0.005560465932 0.02404559009)
(-0.003942342279 -0.01080315672 0.006858675461)
(0.003157682597 -0.01059172244 0.0280504116)
(-0.01149206399 0.0127742991 0.02241213077)
(-0.003884774453 -0.001864557121 0.02555987936)
(-0.01141966543 -0.0005300086826 0.01028245256)
(-0.007350329692 -0.004209463679 0.02342599956)
(-0.03107941787 0.01287186483 0.02369903761)
(-0.02420920095 -0.005995593508 0.0254990614)
(-0.02017265272 -0.01922768668 0.01555712639)
(-0.001771829865 -0.03206319385 0.01470852796)
(-0.008106228244 -0.01503539304 0.01572505336)
(0.01676447078 -0.01436233563 0.01192162168)
(0.01831107614 -0.01496135547 0.008065128711)
(0.03073507095 -0.02985849158 0.0001306198794)
(0.01712067374 -0.02099196853 -0.006390003502)
(0.01372298546 -0.01077226687 -0.0128639821)
(0.0001089286144 0.005363605518 -0.008310009414)
(-0.008135469773 0.0009336166514 -0.005953610441)
(0.02963936659 0.009287712965 0.004295646871)
(0.0003208895285 -0.004547058438 0.020882083)
(-0.007418957625 -0.001152892812 0.007131074701)
(0.01222838303 -0.008202320261 0.02988088489)
(-0.006945266414 0.01875596712 0.02093913077)
(-0.008553213097 0.00674284122 0.02538332313)
(-0.01497274553 0.003231517702 0.008701895888)
(-0.001693080886 -0.008532306204 0.01482219888)
(-0.0299353481 0.01309052305 0.02313032335)
(-0.03435658269 -0.001445396183 0.02905786211)
(-0.03090098427 -0.01032079836 0.02052913868)
(-0.002047375342 -0.03196664067 0.0042895469)
(-0.0004637705015 -0.01455281512 0.007311246065)
(0.01606583517 -0.01155830677 0.009371538426)
(0.01164149532 -0.01133497366 0.01501630772)
(0.02595984848 -0.03058516951 0.001873308752)
(0.02366416596 -0.02534151663 -0.008769771577)
(0.02346308106 -0.01591407895 -0.01607922725)
(0.00501552474 0.00188478576 -0.006773612772)
(-0.01044332517 -0.0005027559178 -0.003479813005)
(0.02792048421 0.00351865673 -0.002685252312)
(8.897925238e-06 -0.0113084466 0.01063179929)
(-0.006421427742 0.01358455507 0.005482171072)
(0.01715773349 -0.002789140505 0.02867099184)
(-0.0009477012347 0.02259305148 0.01680870563)
(-0.0148560087 0.01185078115 0.02584015525)
(-0.02219740374 0.01185613559 0.008144224041)
(-0.0003574513861 -0.007052608971 0.009125538141)
(-0.02605599512 0.0112689209 0.01360325153)
(-0.04071200697 0.001877064525 0.02955117371)
(-0.04173122157 0.001430563258 0.02078635597)
(-0.00480355917 -0.025494106 -0.001267540107)
(0.006275290588 -0.01428303227 -0.005625815224)
(0.01901712658 -0.01270538643 0.005698369745)
(0.004854728275 -0.008642788327 0.01779698027)
(0.02083745261 -0.02726269454 0.005215142267)
(0.02751867533 -0.02472476665 -0.0103392605)
(0.03300750625 -0.02061354314 -0.01803408088)
(0.01116869896 -0.004349103757 -0.006871169074)
(-0.009427650101 -0.003638656486 -0.001723787318)
(0.024255798 0.002435416203 -0.01024653715)
(0.007311198537 -0.01304854108 0.002772509769)
(-0.001326095928 0.02375359907 0.005195590266)
(0.01855345223 0.001999153049 0.02632492998)
(0.003386899277 0.02013781633 0.01501158048)
(-0.01613795428 0.008714082073 0.02505275352)
(-0.02833186194 0.02202078342 0.01243647502)
(-0.002081660779 0.0002502047399 0.007094580322)
(-0.0235900096 0.008436853515 0.007505817134)
(-0.04127906491 -4.884850711e-05 0.02544340857)
(-0.0502400522 0.01216326686 0.0262750562)
(-0.01319785262 -0.01492497785 -0.003206416325)
(0.008550115677 -0.01130920899 -0.0104027801)
(0.02004126208 -0.01826215849 0.0001119796797)
(0.001347633235 -0.00961341166 0.01984732927)
(0.01458805322 -0.02203392077 0.007191350816)
(0.02836776264 -0.01864056321 -0.009222619555)
(0.03788913192 -0.02275824749 -0.01980578732)
(0.01716525867 -0.01047657665 -0.008381085879)
(-0.005063845874 -0.007754259154 -0.002407601114)
(0.02056687931 0.005509273859 -0.01044040652)
(0.01492266207 -0.01198569252 0.004095364483)
(0.004271446827 0.02641616321 0.005963098454)
(0.01459271723 0.00499028128 0.0236799583)
(0.003798644874 0.01576105164 0.01329978682)
(-0.01351136654 0.002146382966 0.02125506605)
(-0.02820234886 0.03102016973 0.0120553927)
(-0.009926991769 0.01058169739 0.009501820178)
(-0.02623550663 0.006313150048 0.002025008473)
(-0.03805118404 -0.005635579579 0.0186603143)
(-0.05223894105 0.01606956818 0.02198559469)
(-0.02145333665 -0.002327206527 -0.001034591884)
(0.003910477691 -0.005416030161 -0.01144622282)
(0.02022301962 -0.0242218137 -0.003251270445)
(0.002187230572 -0.01492658942 0.01431913023)
(0.01444088589 -0.0163392583 0.005753549982)
(0.02697868292 -0.01013553512 -0.01007259571)
(0.03877481033 -0.02076435528 -0.02104698248)
(0.02189717263 -0.01488163759 -0.0122921265)
(0.003245598223 -0.01103822629 -0.004689057165)
(0.01983921109 0.009035541243 -0.002795110858)