/*--------------------------------*- C++ -*----------------------------------*\
| =========                 |                                                 |
| \\      /  F ield         | OpenFOAM: The Open Source CFD Toolbox           |
|  \\    /   O peration     | Version:  5.x                                   |
|   \\  /    A nd           | Web:      www.OpenFOAM.org                      |
|    \\/     M anipulation  |                                                 |
\*---------------------------------------------------------------------------*/
FoamFile
{
    version     2.0;
    format      ascii;
    class       volScalarField;
    location    "9.2";
    object      p;
}
// * * * * * * * * * * * * * * * * * * * * * * * * * * * * * * * * * * * * * //

dimensions      [1 -1 -2 0 0 0 0];

internalField   nonuniform List<scalar> 
30538
(
101296.7903
101283.7285
101261.3774
101249.9157
101256.3704
101257.3659
101255.3841
101260.6167
101269.015
101273.109
101277.083
101287.8248
101306.1934
101319.4805
101320.7722
101318.2607
101317.5065
101317.8782
101315.4854
101306.5008
101294.401
101281.1356
101266.3186
101256.5413
101256.4863
101255.5535
101255.8198
101260.9264
101269.2556
101275.854
101283.056
101292.0035
101303.7952
101313.2966
101316.6257
101317.6299
101317.9331
101318.246
101315.4167
101306.2289
101291.991
101278.1815
101271.9405
101264.3421
101256.8646
101253.5186
101257.5069
101262.4686
101270.146
101279.2267
101288.9406
101295.4797
101300.3148
101306.2446
101312.1363
101317.0784
101318.1385
101317.516
101313.6888
101305.1935
101291.6975
101277.9924
101276.1542
101269.2724
101257.4951
101253.1051
101260.3471
101265.5923
101272.1005
101280.8522
101290.2327
101295.1016
101296.6066
101301.3212
101310.1318
101317.9555
101318.42
101315.3224
101309.5627
101302.8944
101294.4222
101282.4689
101278.4699
101270.7251
101259.8692
101255.4256
101264.1203
101269.5958
101274.546
101279.9382
101286.2083
101290.5496
101292.8985
101298.7327
101310.3195
101319.7623
101319.0792
101312.314
101303.6753
101299.5814
101297.6687
101288.2717
101279.2408
101270.3149
101263.8759
101260.8939
101268.3152
101273.473
101277.1152
101278.7202
101280.6551
101284.2738
101289.0801
101296.6553
101310.3936
101321.2438
101319.8039
101309.797
101298.5492
101296.418
101298.6961
101290.5621
101279.2696
101271.0348
101269.193
101268.3538
101272.5484
101276.0819
101279.5449
101280.1563
101279.371
101281.1623
101285.7125
101293.2227
101307.4167
101319.4842
101318.9075
101308.0492
101296.4713
101294.9425
101296.6355
101289.3427
101280.5307
101274.2068
101275.4625
101276.3518
101276.7008
101277.4462
101280.8968
101283.4819
101283.5226
101282.718
101283.553
101288.7681
101300.9945
101313.1165
101314.6496
101306.6212
101297.632
101295.8662
101294.3632
101288.3245
101283.9717
101280.3031
101282.1585
101283.7558
101281.0709
101278.3435
101281.0586
101286.0521
101289.2597
101287.0791
101284.4519
101285.7057
101293.3547
101303.0282
101306.7079
101303.9882
101300.2932
101298.4846
101294.7545
101290.8162
101289.5193
101287.3527
101288.3631
101289.8384
101286.3812
101280.9727
101281.1167
101285.9247
101291.0543
101290.3599
101287.1405
101285.6226
101287.7718
101293.0246
101296.7561
101299.6815
101301.7754
101300.8986
101298.1173
101296.5358
101295.3265
101293.4589
101293.0977
101294.3118
101292.4626
101286.5596
101283.2859
101285.0909
101289.1474
101290.5303
101289.2839
101287.3518
101285.8995
101286.0705
101288.4769
101294.3102
101300.099
101301.3572
101301.6108
101301.1483
101299.4222
101297.2398
101296.2123
101297.5417
101298.6872
101294.6201
101289.5732
101286.4127
101286.3385
101287.3778
101287.9453
101287.2983
101286.1051
101284.0241
101284.7687
101289.5843
101295.9539
101299.6294
101302.7505
101302.9283
101300.9145
101299.4488
101298.973
101300.7557
101303.9571
101302.3992
101297.6987
101290.7757
101286.2804
101284.415
101284.1037
101284.3405
101285.1279
101284.9093
101285.0045
101287.0301
101291.5043
101297.0467
101301.7406
101302.1465
101301.5454
101301.5531
101302.8
101304.5067
101306.8372
101306.2684
101302.9735
101295.9938
101289.6058
101284.5509
101281.2268
101280.1059
101281.9415
101285.2451
101286.3065
101286.951
101289.8012
101295.6998
101299.6397
101300.9411
101302.4631
101304.6349
101307.8607
101308.1417
101307.6153
101305.9729
101303.5575
101299.3495
101294.2334
101288.0181
101281.8532
101277.4128
101278.6442
101283.8262
101286.6588
101287.9666
101290.4821
101295.547
101298.6076
101300.8596
101303.9662
101307.4944
101311.5388
101310.0326
101306.6811
101303.8232
101301.784
101300.1951
101297.3799
101291.8126
101285.1882
101279.4791
101278.4633
101282.539
101286.0934
101288.6834
101291.7905
101296.2326
101299.0567
101301.21
101305.2963
101308.9988
101311.2928
101309.4097
101306.0745
101302.7387
101300.7071
101300.2182
101297.8009
101293.3064
101288.5837
101284.4122
101282.3034
101283.2264
101285.6333
101288.8589
101292.5078
101296.8705
101299.8743
101301.1819
101305.3085
101307.601
101307.3077
101306.1156
101305.3685
101302.7126
101301.4266
101300.5985
101296.6589
101292.5878
101290.4766
101289.5779
101288.4911
101287.0371
101286.8592
101289.7962
101293.1864
101297.2987
101299.9314
101301.0746
101304.3133
101305.2601
101302.6937
101302.759
101303.7812
101302.8604
101302.854
101301.1346
101296.307
101291.8066
101291.8331
101293.956
101294.7968
101292.7757
101291.0026
101292.1878
101294.2897
101297.8643
101299.8818
101300.3378
101302.2726
101301.3724
101299.6342
101300.7423
101301.5101
101301.4801
101301.7548
101299.4459
101298.0358
101296.4402
101295.0368
101298.9621
101299.8119
101296.9847
101297.6509
101296.88
101296.5984
101299.3197
101296.9135
101284.0173
101272.4981
101260.203
101256.3659
101255.3531
101260.5386
101266.0949
101272.6548
101279.2
101285.2893
101289.9544
101298.6722
101310.5003
101318.8543
101320.8497
101318.2893
101314.9752
101311.2476
101304.8605
101295.3549
101282.982
101273.0536
101263.314
101258.4962
101256.458
101261.3332
101266.0815
101271.6187
101278.3276
101286.3043
101293.2106
101300.2303
101308.614
101315.6067
101318.7914
101317.8181
101315.472
101311.6585
101304.7149
101293.119
101280.9133
101272.7086
101265.9409
101261.3139
101258.2594
101262.6145
101266.465
101271.2412
101278.0961
101287.4015
101295.4869
101301.3085
101306.4792
101312.1383
101316.4854
101317.1343
101315.5035
101311.4342
101304.0898
101292.2323
101280.2162
101272.5905
101267.818
101264.1804
101260.7842
101264.0119
101267.6254
101272.9465
101279.1031
101286.8936
101294.5631
101300.2448
101304.9624
101310.263
101315.3611
101316.4689
101314.4904
101309.718
101302.6399
101294.1419
101282.9091
101274.4538
101269.4253
101267.4904
101264.0475
101265.5302
101269.4987
101276.5314
101280.9923
101284.6114
101290.1092
101297.2647
101303.7656
101309.5099
101314.7779
101315.4703
101312.3641
101306.4701
101300.5507
101297.2769
101288
101278.8147
101271.9563
101270.8448
101268.0945
101268.0126
101272.0379
101280.2503
101282.647
101281.619
101284.8912
101293.2551
101301.263
101307.7609
101313.1247
101313.4904
101309.4157
101303.0679
101298.8598
101298.7827
101291.3908
101283.5657
101275.3537
101274.0548
101272.5182
101272.6211
101275.5946
101282.1212
101283.5613
101281.6041
101283.3568
101290.1715
101296.9708
101303.4006
101309.2328
101310.2203
101306.4616
101301.1839
101298.6435
101298.193
101292.4229
101286.7418
101279.2366
101277.3203
101277.3367
101278.9975
101279.9821
101282.2224
101283.5702
101284.5883
101286.3913
101288.8899
101291.8446
101297.0781
101303.2913
101305.5698
101303.9105
101301.2473
101299.9514
101296.4296
101291.786
101288.3937
101283.3668
101281.7344
101282.9422
101285.8094
101284.4124
101281.9991
101282.9414
101287.7849
101290.59
101289.1883
101287.7771
101291.0982
101296.783
101300.1202
101301.3365
101301.8303
101301.5634
101296.1001
101292.2365
101290.357
101288.3168
101287.8941
101289.087
101291.7114
101288.6176
101283.3427
101283.3031
101288.8112
101291.6278
101288.9351
101285.9322
101287.6679
101291.7203
101294.802
101297.7789
101300.6497
101301.6219
101297.8146
101294.6114
101293.974
101294.3721
101294.8211
101294.8501
101295.8966
101292.6774
101288.0242
101285.7513
101287.7058
101289.0094
101287.4824
101285.6903
101286.8592
101288.8616
101290.7456
101293.3308
101296.8155
101299.5805
101300.0838
101298.3993
101299.3309
101300.296
101300.7136
101299.1532
101298.6121
101297.081
101295.0918
101290.7244
101287.2652
101285.4533
101284.7316
101284.9001
101286.2978
101287.5192
101288.0138
101288.9542
101291.5896
101296.3018
101301.1874
101302.191
101304.2793
101304.6145
101304.6699
101301.9183
101300.5594
101301.0292
101301.5583
101296.2264
101288.8472
101283.8658
101282.6688
101282.8653
101284.0363
101285.8531
101286.1444
101286.2344
101288.1537
101293.9207
101301.4774
101304.6965
101307.1306
101306.7902
101306.9194
101304.4904
101303.1191
101303.8307
101304.4502
101299.4314
101291.6998
101285.4076
101282.6253
101280.8378
101280.4799
101283.1078
101284.8693
101285.9493
101288.1656
101293.8543
101301.1499
101305.528
101307.3723
101307.5241
101308.7363
101307.3924
101306.4573
101305.5187
101303.6106
101299.6434
101294.3588
101288.8873
101284.8278
101280.3198
101278.1822
101280.6022
101284.0396
101287.2541
101290.6264
101295.594
101301.0049
101305.0728
101306.335
101307.8127
101310.2646
101309.989
101309.2573
101306.2095
101301.8818
101298.8409
101295.8815
101292.0769
101287.3398
101282.151
101279.2304
101280.7133
101284.1222
101288.2561
101292.769
101297.3668
101301.2012
101303.9351
101305.6851
101307.999
101310.1783
101310.7705
101310.2173
101306.2835
101301.3375
101299.0957
101297.2308
101293.5917
101288.7916
101284.6858
101283.2023
101283.7539
101285.4872
101288.7914
101293.4179
101297.9961
101301.0172
101302.5358
101305.088
101307.1415
101307.9528
101308.6062
101308.9003
101305.0421
101301.6801
101300.3799
101298.846
101294.7869
101289.4939
101287.6899
101288.8957
101288.8532
101288.2666
101289.8574
101293.4316
101297.8204
101300.1853
101301.6962
101304.2313
101305.7615
101304.8584
101305.3999
101305.5119
101303.796
101302.3114
101301.5848
101300.3804
101295.9677
101291.2939
101291.1194
101294.2369
101294.2844
101292.6082
101292.481
101294.5538
101298.0696
101298.9971
101300.4135
101302.3584
101301.4311
101301.3274
101301.8374
101301.6651
101301.4453
101301.2061
101300.5598
101300.604
101297.94
101295.6823
101297.227
101298.3507
101298.3231
101298.178
101296.8887
101297.0778
101299.3251
101292.4305
101281.8479
101285.9902
101276.8802
101260.5352
101256.4154
101269.3205
101276.3669
101280.885
101287.5185
101295.1554
101295.2689
101292.7593
101299.8736
101314.2154
101323.4853
101322.1361
101314.0217
101306.371
101301.8219
101294.5354
101286.0356
101281.1288
101273.169
101264.4167
101260.9433
101269.8785
101275.7049
101279.4216
101283.2514
101290.3631
101295.8516
101299.2239
101304.3848
101312.7233
101318.9891
101318.9127
101313.7336
101307.9402
101302.4267
101296.6854
101290.0202
101275.5492
101268.9874
101269.0489
101267.4137
101270.7379
101274.6737
101277.6646
101279.2897
101285.809
101296.4131
101305.3299
101309.1771
101311.5605
101314.0948
101314.9065
101313.2008
101309.7801
101303.4468
101297.3357
101290.4764
101272.2224
101267.8336
101273.7866
101273.8944
101271.594
101273.2396
101277.3222
101279.5015
101284.0526
101294.6397
101306.1897
101310.9488
101310.6664
101310.2385
101311.3483
101312.1346
101311.1456
101304.2474
101296.5914
101288.5609
101274.4491
101271.1345
101278.2466
101279.0863
101271.5399
101271.3099
101279.9611
101285.4453
101286.1586
101290.6305
101301.5667
101309.3702
101309.8101
101307.319
101307.9197
101310.3209
101310.9603
101304.289
101295.7272
101286.2548
101281.1606
101277.7268
101281.6359
101282.2343
101271.5626
101270.989
101284.2303
101292.6955
101289.6421
101286.3295
101294.7885
101304.7424
101306.8649
101303.8934
101304.2804
101307.5816
101308.824
101303.8296
101295.6129
101288.4308
101289.126
101284.266
101283.0074
101283.1348
101275.6759
101275.2652
101286.1357
101293.7856
101291.5982
101286.225
101291.3761
101299.7835
101301.9786
101299.6405
101300.6989
101304.5625
101306.1556
101303.6021
101297.8071
101294.4799
101294.5143
101288.2646
101283.1027
101283.2313
101283.6177
101283.9443
101286.5499
101288.7919
101289.0279
101289.5017
101292.8969
101295.9559
101295.9456
101295.1592
101297.7023
101301.6751
101303.6409
101302.9574
101299.4662
101299.0853
101294.828
101289.8472
101285.0547
101285.2907
101292.1648
101293.1151
101287.5761
101283.4963
101286.0093
101291.9878
101295.0257
101292.9777
101291.113
101291.9859
101295.9204
101299.0696
101301.1073
101301.7824
101299.8252
101299.4681
101293.1802
101292.1346
101290.7603
101290.8799
101298.5457
101299.6789
101291.0512
101283.3892
101284.7994
101290.7704
101292.7493
101289.6388
101288.3542
101290.7519
101294.5671
101296.1824
101297.7088
101299.5616
101299.1987
101297.0695
101294.1786
101297.1351
101299.7804
101298.8611
101301.0927
101301.529
101296.9897
101289.3716
101286.3267
101286.9577
101287.2055
101286.0245
101287.445
101290.4939
101293.0126
101292.7933
101293.3049
101296.5535
101298.7525
101297.2126
101300.0098
101304.3339
101308.1894
101305.4368
101300.3664
101299.9719
101302.1596
101297.8474
101290.6551
101284.383
101282.1101
101283.0071
101286.1093
101289.3026
101290.3178
101289.2064
101289.5153
101294.033
101298.6945
101301.4559
101307.7416
101310.119
101312.5166
101308.4146
101299.1914
101298.6142
101305.2957
101304.2049
101295.4762
101284.9767
101280.9211
101281.4709
101283.833
101285.7852
101286.6499
101286.778
101288.2897
101293.3926
101300.5579
101307.4487
101312.7949
101312.1415
101311.8814
101308.7135
101301.4151
101300.7872
101305.773
101305.3005
101297.4706
101287.7023
101283.3667
101282.1315
101281.2772
101281.4523
101283.3582
101286.0715
101289.4803
101294.6554
101302.9399
101310.8394
101312.4673
101310.8372
101309.7041
101308.7884
101307.043
101305.9188
101304.9606
101302.4177
101296.3666
101290.4556
101287.3508
101284.1619
101280.2248
101278.6185
101281.8877
101286.7836
101292.2585
101297.0321
101304.0349
101310.5356
101308.9953
101308.7662
101308.5949
101309.7647
101312.7512
101310.9351
101305.2412
101299.5528
101294.4379
101291.9218
101289.4651
101285.3689
101281.334
101279.887
101282.9069
101287.6093
101293.2752
101298.1642
101303.8239
101307.5746
101306.399
101307.9474
101308.7173
101310.6325
101314.5097
101312.5354
101305.2029
101298.6729
101295.7576
101293.9601
101289.9239
101285.2453
101284.1517
101284.5226
101286.0415
101288.5894
101292.8802
101297.7688
101302.231
101304.1675
101305.2198
101307.7402
101309.1176
101309.4333
101311.9652
101309.9085
101304.1464
101299.3303
101299.8446
101297.8604
101290.0992
101285.7971
101288.1447
101290.5713
101290.6465
101290.5332
101292.4258
101297.0338
101300.1488
101302.3668
101304.0258
101306.9715
101308.4252
101307.2126
101306.6916
101306.1625
101302.3497
101300.8345
101303.8225
101301.5114
101292.7812
101288.4147
101292.0043
101295.464
101295.2277
101294.0254
101294.4793
101297.3751
101297.9983
101300.4574
101302.0421
101302.2454
101304.2779
101302.2366
101301.5806
101302.1831
101300.7001
101301.0255
101302.9756
101300.5043
101297.7363
101295.0228
101295.9894
101299.3802
101298.9006
101297.9194
101298.0555
101298.9462
101288.7079
101282.0661
101294.604
101289.7078
101276.5397
101270.9966
101278.9043
101284.135
101293.209
101299.5488
101300.7142
101297.2741
101295.5323
101299.9165
101308.2292
101316.809
101321.8363
101317.5522
101306.8086
101300.1059
101294.553
101289.3545
101285.8846
101279.8116
101279.0417
101274.537
101277.911
101284.0615
101292.0609
101293.0904
101293.4163
101297.7642
101304.2556
101307.0911
101309.8748
101314.6535
101318.3857
101314.7916
101307.1252
101301.0767
101301.9718
101299.9578
101280.4177
101272.7689
101281.5526
101279.8453
101280.0179
101284.9526
101289.4291
101286.144
101287.8379
101298.8925
101310.1754
101312.9607
101312.0405
101312.0748
101313.1165
101310.9021
101308.021
101302.89
101305.6033
101303.822
101282.1502
101274.7595
101284.4593
101285.5916
101285.1157
101285.9018
101286.3071
101283.4119
101288.3726
101299.515
101308.9619
101312.4687
101312.2032
101309.307
101307.6958
101307.3933
101309.1667
101305.524
101300.9218
101294.7992
101286.3037
101282.3898
101287.5465
101291.5378
101288.3838
101283.3944
101284.488
101289.6296
101296.3643
101297.3965
101300.2761
101307.3562
101311.655
101305.9904
101302.4261
101304.9071
101311.0091
101308.0964
101292.4562
101280.5692
101289.5749
101290.4423
101289.8558
101295.7461
101288.864
101278.7602
101283.4966
101300.654
101307.311
101294.2806
101290.504
101301.5353
101309.2669
101301.8462
101297.628
101303.5199
101312.2659
101309.2782
101289.0548
101279.5042
101294.8953
101296.0223
101291.5963
101296.35
101291.1013
101280.2167
101284.1887
101302.7283
101310.5734
101293.4593
101287.139
101298.8592
101305.639
101297.315
101294.8175
101302.4903
101310.3799
101308.1558
101296.1837
101294.2219
101300.2732
101298.0933
101292.7182
101293.8795
101295.1608
101290.0752
101288.5203
101296.2998
101299.7266
101293.2285
101292.7815
101300.0107
101301.3407
101294.0825
101294.3957
101300.6043
101305.0014
101303.9271
101304.2078
101310.2181
101302.6869
101298.3794
101294.9095
101292.9495
101300.4506
101301.5039
101296.2599
101289.5722
101287.8435
101292.0441
101298.9835
101300.7283
101297.1804
101292.8271
101295.3221
101297.811
101298.185
101298.1567
101306.8178
101313.0098
101300.9052
101299.7668
101300.0914
101296.7193
101305.3553
101309.3576
101303.5328
101289.6355
101283.0466
101289.821
101297.9474
101296.9315
101292.7613
101292.2795
101295.8553
101295.0343
101292.3777
101294.1574
101303.0329
101304.1289
101300.0105
101303.4748
101307.841
101305.5849
101307.6528
101309.831
101307.9462
101295.791
101287.0788
101287.2007
101289.9987
101289.012
101288.4785
101291.0927
101294.5081
101292.7047
101290.5182
101293.3902
101297.2829
101296.1892
101303.6586
101309.076
101314.432
101313.6537
101307.3366
101304.5488
101307.0056
101303.4665
101297.2592
101288.7018
101283.0747
101282.2744
101284.9398
101287.8417
101290.7854
101291.121
101292.3407
101295.7317
101294.7177
101297.4029
101310.5525
101313.4383
101316.865
101317.4004
101306.4232
101299.1846
101302.6171
101309.0372
101306.9928
101292.0535
101280.7029
101280.0107
101283.8142
101284.2349
101286.2479
101289.6878
101294.9373
101298.7519
101298.6343
101306.0003
101315.6586
101314.9268
101314.2925
101316.8619
101308.6901
101300.0202
101300.6821
101310.565
101309.4688
101293.2531
101281.9508
101282.5749
101285.1958
101282.3976
101282.5006
101287.5162
101295.1828
101299.6316
101304.7296
101313.1257
101315.1254
101313.2296
101311.149
101314.9426
101313.5256
101306.5737
101305.2677
101308.5916
101303.8489
101291.2136
101285.4432
101286.9843
101287.2509
101282.1447
101281.1743
101285.4783
101293.1298
101298.4339
101307.4048
101314.5833
101311.0438
101310.8141
101309.9879
101313.2715
101316.4746
101314.1723
101311.7793
101305.993
101296.4524
101289.7006
101288.3556
101288.812
101287.2828
101283.2055
101282.7022
101285.1217
101290.3948
101296.6613
101306.3357
101310.6659
101307.7562
101309.3683
101311.3194
101311.6071
101314.2126
101317.3519
101314.8117
101302.5883
101293.179
101292.6687
101292.1766
101287.7116
101285.2884
101285.2124
101286.9477
101287.893
101289.9073
101295.5966
101302.5985
101305.1823
101305.6958
101307.626
101313.4542
101308.2676
101307.2572
101314.2195
101313.0081
101298.7199
101294.1533
101299.4765
101296.8428
101287.6318
101283.5195
101288.3866
101293.1142
101293.1329
101292.0972
101296.1345
101299.6292
101302.7785
101302.7525
101306.17
101313.6074
101304.9212
101300.5606
101308.6221
101307.237
101296.9512
101298.1848
101305.5449
101301.0003
101289.8847
101285.6773
101291.7691
101297.5304
101298.6505
101296.7282
101297.6065
101297.9046
101300.8865
101300.4389
101303.0991
101307.3999
101300.9649
101298.8905
101303.2442
101302.2264
101299.6718
101300.4154
101303.051
101302.3295
101294.8551
101292.3605
101297.2891
101299.0131
101301.0455
101301.2301
101299.4523
101293.5316
101295.1468
101297.5807
101299.2298
101297.077
101298.1488
101291.8664
101289.9251
101303.08
101309.3344
101307.7312
101305.5761
101304.9722
101300.6449
101300.933
101306.5161
101316.1801
101319.3048
101312.0828
101302.5919
101296.7953
101294.3243
101285.9086
101285.8865
101297.4657
101300.3083
101289.4448
101289.256
101303.9198
101310.3028
101304.8929
101302.2302
101308.1435
101311.9121
101310.8573
101309.3651
101313.634
101314.6639
101309.9233
101302.7364
101303.8743
101302.4837
101285.4015
101281.176
101296.662
101299.3556
101292.213
101294.2963
101303.1797
101307.3723
101299.8305
101297.1511
101308.8736
101319.5933
101318.0686
101311.9472
101310.4951
101308.9743
101307.0758
101302.9119
101308.0776
101310.6507
101298.9082
101292.5134
101294.5367
101295.0709
101301.8178
101304.572
101298.9414
101296.7183
101297.3396
101296.5119
101304.765
101314.4554
101316.8525
101312.247
101307.4741
101304.0753
101304.7535
101303.6706
101301.3931
101300.7444
101307.3761
101304.2734
101291.4156
101292.8072
101312.5653
101311.391
101291.3752
101290.4858
101305.476
101302.6609
101297.6905
101300.8349
101309.305
101310.9565
101305.3155
101301.6358
101305.2396
101305.5948
101288.7355
101278.6359
101304.8019
101309.6534
101289.043
101295.6372
101320.7069
101311.1072
101284.2652
101287.6
101316.5361
101317.6071
101295.7976
101288.7973
101301.3743
101307.5342
101303.3512
101301.6917
101307.4832
101307.6053
101283.975
101275.9015
101300.9687
101309.0085
101292.5073
101299.7169
101321.6394
101309.7871
101284.416
101287.1364
101321.2502
101323.9941
101297.6455
101286.0948
101297.9935
101303.7229
101301.6946
101301.7734
101307.2454
101307.0529
101294.7621
101295.0789
101301.3793
101306.9524
101300.8498
101301.6245
101315.4312
101309.3597
101291.8839
101289.4142
101307.3448
101313.4238
101298.7836
101293.9293
101299.9123
101301.2319
101299.8596
101299.8653
101303.124
101302.5664
101309.4904
101318.6776
101307.2235
101307.851
101308.2857
101302.9555
101310.4469
101313.4914
101306.741
101294.0208
101289.6753
101298.4748
101301.9507
101301.4287
101301.5558
101299.5167
101297.7891
101296.0671
101296.227
101296.3663
101315.4205
101325.0258
101311.2348
101311.4953
101312.497
101305.354
101311.2299
101319.7269
101319.1548
101298.7826
101281.0623
101291.7396
101302.4746
101302.2684
101299.1982
101296.7062
101295.136
101292.152
101291.2626
101292.7301
101307.9357
101312.0948
101311.9067
101314.6681
101313.9399
101310.5993
101316.129
101322.3795
101320.2943
101301.9039
101287.6654
101292.822
101297.5379
101294.6189
101292.3467
101292.057
101292.3418
101290.7459
101291.7271
101294.831
101296.2495
101296.2355
101310.6527
101317.038
101313.4996
101315.4405
101322.4712
101320.4651
101310.5609
101302.5229
101302.5967
101300.0283
101290.4227
101284.1115
101285.3057
101287.3487
101289.6236
101291.6359
101296.4684
101300.4397
101290.7596
101292.6701
101311.5058
101318.479
101312.8681
101318.523
101327.0877
101316.1303
101295.6083
101301.2243
101316.2919
101306.0046
101285.8223
101278.0594
101283.1319
101284.8619
101287.1319
101291.5527
101299.5477
101304.1848
101296.1658
101302.3296
101314.3228
101319.3362
101312.2957
101319.6315
101327.1271
101313.142
101291.3027
101303.591
101319.0212
101304.1209
101283.7826
101279.7918
101286.358
101286.0002
101285.0874
101288.5661
101297.0117
101302.2434
101305.8052
101312.9434
101315.4485
101318.0395
101311.5171
101319.8785
101325.9864
101314.123
101302.2503
101309.3123
101311.9517
101296.4648
101284.422
101285.8249
101291.2949
101288.1988
101284.1261
101284.456
101290.3784
101296.8815
101310.2954
101316.8981
101313.8171
101314.8755
101312.6176
101319.8413
101320.3991
101314.7727
101315.5912
101314.2591
101303.2678
101290.4223
101286.3006
101289.885
101292.1504
101288.6864
101284.925
101283.403
101286.0262
101293.4843
101307.4382
101312.9377
101310.7302
101309.9397
101316.0773
101319.6423
101309.9348
101312.5084
101323.0532
101314.5193
101296.5761
101289.5748
101291.7374
101291.5536
101288.2044
101286.7531
101287.7166
101287.4862
101288.0881
101293.833
101301.3402
101304.722
101305.7831
101303.404
101319.7378
101316.3094
101296.6479
101306.339
101323.4147
101309.0159
101290.6773
101292.551
101298.9726
101292.5945
101283.0306
101285.7286
101292.8246
101295.0694
101294.5191
101296.6338
101298.2256
101301.7505
101299.2196
101298.6937
101318.933
101311.1383
101290.4698
101300.4439
101317.0181
101303.0927
101289.6863
101296.7638
101304.1738
101294.8072
101283.893
101287.9233
101296.5763
101300.9608
101300.9169
101299.4144
101299.2295
101301.5927
101297.1479
101301.4294
101309.541
101302.167
101294.432
101301.9187
101306.1153
101300.4388
101295.1113
101299.674
101303.6847
101297.3726
101292.4478
101294.1952
101298.0775
101303.1647
101304.1236
101300.291
101300.9001
101308.729
101310.7123
101318.931
101305.4632
101309.4789
101327.0811
101303.5277
101283.8754
101308.7881
101342.0077
101329.2442
101298.1046
101297.2671
101323.6833
101313.7334
101306.5971
101308.5987
101312.5651
101307.3022
101295.4967
101293.1803
101290.7206
101298.3273
101312.7453
101323.2201
101315.2513
101303.0305
101306.5729
101324.2619
101330.6477
101311.1277
101298.3977
101309.1481
101318.9745
101311.4672
101307.1468
101311.4916
101314.068
101306.4948
101298.2754
101291.881
101288.1131
101292.181
101315.3272
101324.415
101309.2886
101311.5877
101326.375
101324.2868
101309.7763
101300.5832
101309.0999
101315.3639
101308.3093
101309.2354
101310.7726
101313.2594
101311.3874
101303.7895
101305.6839
101308.9581
101308.4951
101304.0501
101308.9332
101307.4321
101309.2602
101328.1119
101336.8479
101302.8926
101280.1997
101304.4364
101330.6899
101314.9129
101294.5506
101307.9124
101316.7388
101312.4805
101304.2354
101298.6692
101301.9819
101315.9326
101325.0272
101317.1493
101298.544
101290.2156
101320.2846
101346.3749
101331.4387
101283.9379
101267.2793
101315.6946
101337.9499
101303.6031
101283.4791
101310.0664
101321.3828
101309.784
101297.6861
101295.3498
101290.8327
101304.1163
101322.4177
101319.6413
101294.0638
101286.8
101336.557
101361.1976
101324.7412
101277.2026
101272.9809
101330.4183
101337.9288
101291.3637
101276.657
101311.0705
101320.8841
101306.4776
101296.0706
101295.8864
101285.894
101295.7118
101307.4882
101312.6421
101302.0664
101297.7685
101336.8348
101360.7517
101325.903
101277.247
101315.5685
101343.3442
101332.9175
101285.1253
101275.2842
101309.5954
101314.6984
101303.5714
101298.0777
101298.8479
101292.5674
101299.8452
101294.6371
101305.2464
101319.7407
101313.5975
101321.312
101346.1683
101332.0576
101276.6736
101295.3722
101328.1031
101318.1057
101284.9413
101280.4983
101307.4143
101307.3163
101301.0926
101299.9868
101301.3995
101308.8709
101313.5028
101299.029
101306.5938
101333.7219
101323.4223
101304.3037
101332.2674
101350.5483
101303.2909
101264.4244
101298.0422
101312.8658
101291.2319
101287.3589
101304.3256
101301.2232
101297.6772
101299.0935
101301.0961
101317.9483
101324.968
101314.5819
101314.2863
101334.2644
101324.4192
101298.3376
101327.4833
101360.1339
101330.5778
101271.6824
101284.3801
101308.8581
101297.278
101290.9683
101300.3392
101296.6716
101293.5728
101296.2397
101299.7271
101310.6033
101319.2313
101323.9485
101320.1756
101325.9952
101320.3408
101307.9096
101331.5987
101352.0753
101325.362
101288.1258
101287.4328
101307.7225
101298.938
101290.1537
101295.3462
101293.622
101291.2817
101295.3842
101300.3322
101296.4391
101305.9587
101318.2943
101322.6885
101317.1917
101315.4713
101328.9894
101343.1503
101334.0183
101304.0918
101291.9247
101298.209
101307.8623
101297.567
101286.8985
101290.8275
101291.4302
101290.6594
101296.992
101302.5699
101291.0509
101299.1466
101309.6279
101323.9238
101313.3685
101311.3846
101346.6972
101358.0938
101319.0752
101281.2441
101290.2833
101313.0314
101309.9034
101291.1724
101282.3251
101287.7925
101290.1861
101290.0468
101296.816
101302.611
101295.4525
101304.0045
101307.9524
101325.2262
101314.796
101306.9923
101345.0545
101359.4034
101310.253
101272.5718
101295.9603
101325.3548
101308.4714
101280.2692
101279.3371
101288.3613
101289.74
101288.3038
101292.9758
101298.893
101306.2971
101313.4324
101314.1713
101325.0209
101314.2782
101304.5913
101335.4917
101343.1218
101306.7096
101283.9197
101305.893
101321.9551
101299.1243
101276.0007
101282.9086
101291.0932
101290.3232
101286.7609
101287.3562
101293.9958
101310.1393
101317.5149
101321.1344
101320.9707
101311.8566
101309.6792
101324.7008
101316.1835
101304.2566
101307.8457
101317.1173
101307.6261
101286.581
101280.0911
101289.9283
101293.5701
101291.0381
101287.3117
101285.8622
101292.3039
101303.4025
101312.7753
101320.5861
101312.3258
101311.933
101324.5595
101312.3316
101294.6997
101308.4409
101327.5003
101317.7695
101290.2687
101280.8765
101289.9904
101295.9037
101292.6155
101290.8656
101290.2675
101290.4007
101294.6674
101294.5614
101298.8995
101310.3288
101300.7836
101316.2773
101338.3266
101302.2939
101283.9402
101316.3802
101335.0797
101306.4685
101276.4433
101285.2837
101302.2473
101297.5566
101290.161
101290.0026
101294.448
101298.6632
101298.4128
101292.6014
101291.9514
101296.3047
101290.5732
101315.2071
101339.8292
101298.8555
101283.855
101318.3021
101329.367
101293.9054
101273.5288
101293.3193
101308.4777
101298.3062
101290.3925
101290.979
101296.2152
101303.0547
101300.2661
101301.4618
101300.573
101293.6182
101296.8946
101306.5294
101307.8127
101297.535
101297.9848
101308.0807
101306.2907
101294.8316
101290.5852
101298.7404
101305.6148
101302.2199
101295.6618
101293.2586
101299.0042
101303.9955
101300.2564
101305.2928
101316.7558
101328.6962
101337.2084
101291.9205
101290.6186
101360.4964
101347.9719
101308.2769
101307.64
101322.9495
101336.1917
101329.1764
101318.2365
101320.0176
101318.0367
101300.4428
101299.7011
101304.3307
101304.6968
101296.953
101288.129
101311.9961
101322.1564
101316.3099
101322.5205
101346.4848
101336.0245
101305.8239
101314.3181
101330.991
101323.2178
101306.851
101304.3505
101312.0051
101313.4075
101306.316
101306.2011
101308.1894
101306.2071
101294.2919
101277.7987
101301.5316
101310.6461
101332.4915
101341.3853
101327.646
101326.0967
101310.9451
101316.7699
101335.5828