/*--------------------------------*- C++ -*----------------------------------*\
| =========                 |                                                 |
| \\      /  F ield         | OpenFOAM: The Open Source CFD Toolbox           |
|  \\    /   O peration     | Version:  5.x                                   |
|   \\  /    A nd           | Web:      www.OpenFOAM.org                      |
|    \\/     M anipulation  |                                                 |
\*---------------------------------------------------------------------------*/
FoamFile
{
    version     2.0;
    format      ascii;
    class       surfaceScalarField;
    location    "9.2";
    object      phi;
}
// * * * * * * * * * * * * * * * * * * * * * * * * * * * * * * * * * * * * * //

dimensions      [1 0 -1 0 0 0 0];

internalField   nonuniform List<scalar> 
91025
(
2.259637976
-0.08116014226
-0.1931276356
1.896766122
-0.2749023955
0.01024600619
1.384964257
-0.2587832492
-0.1002464594
0.8081788871
-0.1582978381
0.1364984083
0.5417205859
0.1370056624
-0.01533828913
0.120567501
0.03153898839
0.04461763683
-0.5338174582
-0.1237936502
-0.142477519
-1.172634346
-0.3287172953
-0.1148131237
-1.514769733
-0.3632119812
-0.1765036635
-1.680441052
-0.3625722013
-0.1308643251
-1.620252094
-0.16844559
-0.1643180445
-1.324317222
0.1239249202
-0.09687118278
-0.9327265664
0.2239665618
-0.1693104766
-0.6237289204
0.04062991467
-0.2472876735
-0.3307588921
-0.05290028848
-0.2090589627
0.1737198412
-0.0681847727
-0.1353328752
0.5181498156
-0.0459829965
-0.09329285313
0.5865559045
-0.1410709808
-0.2114388313
0.3090911392
-0.122685789
-0.2113003986
-0.09631721207
-0.1515116941
2.183992338
-0.1110483805
-0.1383956529
1.869213038
-0.4391367508
0.0692418376
1.466504407
-0.3540511834
-0.09322223442
0.9117365943
-0.266461486
0.09404615496
0.5333427371
0.1383886191
-0.03662593988
0.02140274767
-0.06251494061
0.03896714445
-0.6167630522
-0.259222199
-0.1343614692
-1.21140946
-0.542886449
-0.08605718259
-1.5071893
-0.4951301866
-0.1293538225
-1.580192387
-0.4869201375
-0.09790303825
-1.465487127
-0.2718814228
-0.1803240385
-1.263424692
0.03067734652
-0.1560159419
-1.012033412
0.1395770285
-0.1972862744
-0.715101715
-0.03873729337
-0.2160123727
-0.3676485543
-0.04143121475
-0.1707744251
0.1767849882
-0.01345913707
-0.1386485408
0.5139043308
-0.02639417263
-0.1140288779
0.588856504
-0.2780459939
-0.2176642147
0.3304048235
-0.2984310083
-0.19385679
-0.2230930845
-0.1329768037
2.041520983
-0.03840459217
-0.06374765717
1.78269407
-0.4854129071
0.1706395902
1.548861944
-0.2525155029
-0.05784887388
1.044704632
-0.3431046993
0.0682143249
0.501752059
0.01519887479
-0.07270138422
-0.1160761842
-0.291885654
0.03439878655
-0.7093373649
-0.3954569193
-0.1267748081
-1.241167464
-0.6569149433
-0.04973296888
-1.488184021
-0.4085297417
-0.1148283268
-1.489157955
-0.4118244125
-0.07607486089
-1.302903272
-0.3245732712
-0.2362433013
-1.177160934
-0.2702662325
-0.2090430888
-1.048021865
-0.1714987509
-0.2397203786
-0.7616761271
-0.2314384147
-0.1826943247
-0.3649414497
0.004622788793
-0.1512587221
0.1589431192
0.0770363266
-0.1679439022
0.4593787829
0.01214166974
-0.1541152621
0.5782106645
-0.3974204485
-0.2138335187
0.4095885821
-0.4613906296
-0.1432099024
-0.3452686718
-0.09096286181
1.937761239
0.09935134792
-0.02045078858
1.788556752
-0.413486002
0.239145275
1.631380065
-0.06829618235
-0.01652195898
1.126166536
-0.4540894901
0.06739008962
0.4687680759
-0.1943842533
-0.08884593124
-0.2138621562
-0.5970650671
0.03913876141
-0.7417611524
-0.5244111867
-0.0897262639
-1.193297956
-0.7437523773
-0.02967109825
-1.450108952
-0.3284109485
-0.1192288428
-1.47428953
-0.3509802955
-0.09386890663
-1.280123391
-0.3617154794
-0.2455882176
-1.155864133
-0.5500844263
-0.2238582233
-1.031664836
-0.4706441174
-0.2463665517
-0.7178964099
-0.4115962757
-0.1684391237
-0.3363959393
0.003519143081
-0.1570845688
0.08077706897
0.05073194273
-0.226270946
0.3190634883
-0.01522567451
-0.197814924
0.5137587275
-0.483853559
-0.1878147187
0.4919498153
-0.5160351752
-0.06630953184
-0.3939946167
-0.03680156871
1.859608655
0.235137206
-0.0428533609
1.751580266
-0.3012244874
0.2199616742
1.586216333
0.05056943817
-0.00980546685
1.066834711
-0.656836288
0.08625977727
0.3914073172
-0.437842571
-0.107169647
-0.290737437
-0.9050107461
0.05426318511
-0.7386546103
-0.5978967468
-0.07389569837
-1.098041859
-0.8938732401
-0.02532422237
-1.406118714
-0.4237225605
-0.2094474457
-1.534967799
-0.5079214646
-0.1257827292
-1.335015646
-0.3857404897
-0.3054241476
-1.143152901
-0.6205956211
-0.1792268596
-0.9125014313
-0.4741636967
-0.2654271144
-0.5586492146
-0.4669497842
-0.1678900514
-0.2523116178
-0.08577986401
-0.2016037618
0.01380161724
-0.1827131357
-0.2831963334
0.1829867006
-0.1215669778
-0.2247413487
0.4762611513
-0.4642365581
-0.1356409887
0.6321693448
-0.3579427243
0.02516348235
-0.3071709626
0.02296484394
1.90105622
0.320536914
-0.1032706781
1.764952097
-0.245598532
0.1290634746
1.498137805
0.003036410093
-0.03153370483
0.9704837167
-0.9134566524
0.1088277918
0.3626894839
-0.6464485855
-0.09023329085
-0.2908144201
-1.13854108
0.0728044799
-0.6976471782
-0.6180446767
-0.04248121888
-1.006557359
-1.05525739
-0.03256540239
-1.340235798
-0.6988782237
-0.2418851319
-1.557747472
-0.876614549
-0.157801155
-1.427326994
-0.422501583
-0.2824162085
-1.159438617
-0.489415397
-0.1353531551
-0.8303999589
-0.1857164538
-0.2353170095
-0.4766930914
-0.3719180003
-0.175265477
-0.23706996
-0.207202251
-0.2169897403
-0.0584877778
-0.4892912052
-0.2938465052
0.0793568073
-0.2280703974
-0.2058129749
0.4368580333
-0.306477195
-0.07600388019
0.7177597224
-0.009706387071
0.09165772663
-0.104865149
0.06151728152
1.85480563
0.3751578541
-0.1519103241
1.624077202
-0.3522191184
0.06100009082
1.283656261
-0.1479424529
-0.06725859683
0.7986576221
-1.165017186
0.1337653365
0.3129037948
-0.7338724108
-0.06356842966
-0.2877784796
-1.299327689
0.08775530194
-0.7165593304
-0.5945729099
-0.0557426877
-1.017143012
-1.19278231
-0.01965343899
-1.279388888
-0.876062219
-0.2749484881
-1.468164618
-1.244874576
-0.1443659575
-1.332632094
-0.4354816226
-0.3995454404
-1.105999277
-0.379878334
-0.1263930131
-0.7901287563
0.1561174372
-0.2805951023
-0.4701961887
-0.2528805313
-0.1701937396
-0.2324674085
-0.2116364327
-0.2131809236
-0.01001435458
-0.6509319562
-0.238377252
0.1640688155
-0.2085725875
-0.1520629695
0.5246692961
-0.09323500575
-0.04460591476
0.7847873449
0.3581893538
0.08706258313
0.09027116495
0.04831251735
1.848956851
0.3445263195
-0.1471577272
1.462331385
-0.6014401996
0.04436737348
1.143223264
-0.2960681145
-0.06181203044
0.7380005218
-1.289201225
0.1618350073
0.3436708123
-0.7007452789
-0.005902380365
-0.225314551
-1.393069935
0.09048764417
-0.7309866229
-0.5982033264
-0.0515469058
-1.07876851
-1.236929999
-0.002544818865
-1.238496405
-0.8292422907
-0.1775060724
-1.264709558
-1.364493049
-0.1366453967
-1.125058925
-0.4429821378
-0.430257113
-1.030562444
-0.4980280882
-0.1971747122
-0.8789936777
0.2305749133
-0.2911991892
-0.6239952962
-0.2084412241
-0.1700098808
-0.3216227243
-0.05176860733
-0.1550122495
0.04156910068
-0.508973052
-0.1488454419
0.3055559866
-0.02020290354
-0.08154885314
0.6020857045
0.0679524088
-0.05011782993
0.7193940739
0.5328085315
0.0167980582
0.151128738
-0.009020343987
1.678167395
0.2779912671
-0.1162267254
1.228360339
-0.9286529983
0.0722555226
0.9645562147
-0.303556049
-0.04227427669
0.6494301799
-1.260305873
0.1807613698
0.3036428047
-0.5736017918
0.01752853896
-0.2096710042
-1.485841982
0.08611315633
-0.7573644552
-0.6386669278
-0.07935971077
-1.149237567
-1.265636672
0.03305263522
-1.21560504
-0.5309578421
-0.1081465499
-1.093654622
-1.222317499
-0.04410352862
-0.8787516404
-0.4024877803
-0.4401582509
-0.886678688
-0.8227386483
-0.2239930288
-0.8870676873
0.03342265646
-0.3281396258
-0.6969145349
-0.2827058515
-0.1560615825
-0.3336134706
0.2504327866
-0.117016847
0.1722461979
-0.1769578053
-0.06547122865
0.5125259917
0.2774784504
-0.03460963383
0.73222735
0.1006999234
-0.0825975184
0.6829734044
0.4546624073
-0.08211859704
0.03478432674
-0.08505654748
1.573852685
0.2400527392
-0.08512080339
1.164557148
-1.129779956
0.1070045489
0.9485677066
-0.1879698012
-0.01439453447
0.6405726543
-1.148409814
0.1807356423
0.2986077836
-0.4654986521
0.03396561977
-0.1701773551
-1.60108014
0.08387539099
-0.6982110766
-0.7359788439
-0.06370186879
-1.123644127
-1.305510943
0.03857890485
-1.203208671
-0.2202926559
-0.01256802791
-1.035224076
-0.9565727934
0.0007303137531
-0.7941971562
-0.2789312023
-0.2878212413
-0.7829064658
-1.058657914
-0.2116130102
-0.822115597
-0.1807545114
-0.2657320075
-0.6865500135
-0.3631102988
-0.156267486
-0.3522213518
0.5041571917
-0.09473388411
0.1753612394
0.1555056138
-0.03586987541
0.5343297263
0.5340554194
-0.01400279576
0.7016736847
0.04661992161
-0.1064821401
0.5703733606
0.2505683322
-0.1383560047
-0.1531429529
-0.1228457477
1.327184173
0.2790991762
-0.07640059856
1.075790854
-1.116399683
0.1206679683
0.8636722431
-0.03530107057
-0.0187539638
0.5105868871
-1.138397983
0.1425158502
0.1657947773
-0.454508743
0.008008608971
-0.2052538084
-1.74901027
0.09242834439
-0.6121100174
-0.8049831043
-0.06655581779
-1.010248191
-1.410862155
0.02769707567
-1.176183239
-0.07848886824
-0.0379814129
-1.083567175
-0.7873237005
0.04664853664
-0.7921516991
-0.05004310829
-0.1911761402
-0.6592157563
-0.9734935543
-0.1078363685
-0.5803648365
-0.1110369552
-0.2143624995
-0.46560189
-0.3678991135
-0.1467138442
-0.2316601111
0.5850638371
-0.1328839606
0.1987818799
0.2636854822
-0.06281708546
0.4984075366
0.6281585191
-0.03768399939
0.6665371503
-0.013543379
-0.1086048177
0.5740567824
0.1302420011
-0.1227257093
-0.2677723606
-0.1031232277
1.255636512
0.3892763779
-0.07147244277
1.139841749
-0.9614082815
0.1209615374
0.8731413796
0.03667912826
-0.02539313082
0.4243701811
-1.283476141
0.1003917958
0.0854394707
-0.5260377846
0.009569263446
-0.1840189756
-1.840503946
0.1245108116
-0.4457743231
-0.7953084369
-0.01616767664
-0.7965392992
-1.52225063
0.001386272472
-1.099435282
-0.1724320825
-0.05911183188
-1.131952309
-0.8016010644
0.03130612525
-0.894602769
0.1789759873
-0.03982067065
-0.6255678701
-0.6467468565
-0.01417963418
-0.4287757929
0.2127688673
-0.1090451704
-0.3050068093
-0.2633561935
-0.133328845
-0.1689195361
0.5242330967
-0.1386422347
0.1044800343
0.1325046047
-0.1070402887
0.323900637
0.5517656758
-0.06079271281
0.4990944719
-0.01023374846
-0.0833437896
0.5171704717
0.2135030051
-0.04844088321
-0.2332663268
-0.04759886795
1.067457338
0.5400666413
-0.06337097994
1.002394155
-0.8450671472
0.108055336
0.6860614212
-0.004042080959
-0.05141375854
0.2218743187
-1.524476681
0.06241410289
-0.06415755028
-0.5811549363
-0.0005815748772
-0.2077643765
-1.794185973
0.1447730689
-0.3417544016
-0.645874178
-0.0004978852127
-0.6342439982
-1.581753425
-0.01756329862
-0.9430635293
-0.3513982619
-0.1205292492
-1.067412159
-0.9599446648
0.01020049817
-0.8618911597
0.2937727601
-0.01386476074
-0.5538005692
-0.3361812616
0.03592701623
-0.3033063638
0.5763850344
-0.08325354101
-0.1719931429
-0.1269730756
-0.1059933302
-0.06621803045
0.4839102662
-0.1225863109
0.1343426167
-0.0423516667
-0.1143623742
0.3046189608
0.4941661403
-0.07156936917
0.4766173675
0.06003563166
-0.05629426926
0.5360512314
0.4082894679
0.0007129166496
-0.1384972122
-0.006407715086
1.055912396
0.6232927169
-0.04735212607
0.9175931019
-0.8613711473
0.0975501182
0.5906247617
-0.08945158186
-0.04486948129
0.1686524523
-1.684171186
0.06429736095
-0.05129994077
-0.5356796414
0.01861386068
-0.1512892232
-1.65410628
0.159631985
-0.2597415092
-0.4473785744
0.04824489298
-0.512181642
-1.550250428
0.008120945686
-0.7751200698
-0.429373686
-0.07168130365
-0.902739038
-1.080192614
0.01120508168
-0.7691940374
0.2984318184
0.02214165327
-0.5251808624
-0.2211123657
0.01992605207
-0.3484266712
0.7255252221
-0.06090558633
-0.2384653288
-0.03179419285
-0.07513198443
-0.1149019619
0.5481165519
-0.05222352233
0.1059652461
-0.03281404701
-0.06065694172
0.2778748371
0.5502806115
-0.04089922723
0.4090194322
0.131352198
-0.04746682833
0.4176360398
0.5149423169
0.009254829046
-0.08860902333
-0.003013202135
0.8465101999
0.6112711298
-0.03418309067
0.6290571123
-1.020322077
0.06782268561
0.3484088842
-0.1278214831
-0.04156420656
0.05998464129
-1.686322012
0.05466425721
-0.07540401065
-0.3935439066
0.003813038047
-0.1587084461
-1.519953475
0.1194434694
-0.2832804932
-0.3135145645
0.03484403618
-0.4861753527
-1.481859106
0.03669118979
-0.6216494194
-0.3352766265
-0.01754815039
-0.6670457252
-1.031672914
0.02887515265
-0.5435750467
0.3024585476
-0.01971058961
-0.4138935156
-0.2787576253
-0.03147760699
-0.3186166691
0.6324398962
-0.09341268547
-0.2449026903
-0.03734814114
-0.05801429103
-0.07471018356
0.7144332893
-0.01052714994
0.2018548935
0.2005012585
-0.006188445021
0.3789212346
0.728127428
-0.02304603844
0.4532251707
0.1420179485
-0.05932866432
0.3871342571
0.4439371078
-0.03066513161
-0.1572073945
-0.02172548429
0.7966480541
0.5333293254
-0.03027185019
0.5249787025
-1.194176043
0.05635225039
0.3103590428
-0.1002367056
-0.02294177561
0.1154399996
-1.588603581
0.06627756614
0.01156873886
-0.2570637426
0.007929292309
-0.1081225423
-1.476057295
0.08472124112
-0.2771160377
-0.3167335281
0.04387960388
-0.4309144406
-1.437189205
0.08213897085
-0.4971778992
-0.1552509207
0.07424840163
-0.4978849883
-0.863784945
0.0576890388
-0.4282350626
0.3800324839
-0.006832081753
-0.3716620605
-0.3597129509
-0.04949915373
-0.328809668
0.492847098
-0.0649535997
-0.2587969586
-0.09651711194
-0.03788545171
-0.1019831457
0.8429194254
0.0178138542
0.1356426894
0.4261926632
0.01093804221
0.279931705
0.874120512
-0.00882710979
0.3226651407
0.09987917554
-0.06482797912
0.2547300556
0.3024971647
-0.04966108256
-0.2626530648
-0.03791291968
0.5314459971
0.4711270053
-0.03248085289
0.3129917492
-1.308484306
0.02836485058
0.1607725182
-0.05287347283
-0.02496624285
0.04896781665
-1.517524353
0.03545265158
-0.03641482488
-0.185783107
-0.01981809079
-0.1546391498
-1.507864027
0.02292237389
-0.2789351135
-0.3405202289
0.007840817402
-0.3471611018
-1.392699832
0.07441226115
-0.3586557343
0.0128220427
0.06691937152
-0.3466817278
-0.7274798496
0.03117587049
-0.323901724
0.4746180802
-0.03987614236
-0.2928245916
-0.330652458
-0.03819315107
-0.2016580302
0.4796506063
-0.03511491717
-0.07503727105
-0.08937089608
-0.01944662126
0.03721099635
0.8906318149
-0.01993608015
0.1421829319
0.4594452934
-0.02782611909
0.207940761
0.9018926786
-0.02972630766
0.2582495846
0.07070751582
-0.0518646613
0.2627681694
0.2560212393
-0.03759917591
-0.2996577871
-0.02377097204
0.4836667722
0.4747334545
-0.02994195946
0.320648646
-1.31706829
0.02795822118
0.208098078
-0.05725711289
-0.0137326164
0.1039875226
-1.539823252
0.03808954792
-0.004466343049
-0.2029006219
7.71634593e-05
-0.1305653029
-1.562640445
0.01904353259
-0.1784967832
-0.3049382836
0.01923958405
-0.2003168671
-1.297050516
0.08407727478
-0.2311532665
0.07397859373
0.06973808836
-0.2626825088
-0.7291665678
0.008793605162
-0.3266266969
0.4719707152
-0.02874846713
-0.3221715498
-0.2897197473
0.0006732392806
-0.170589309
0.6455816499
0.04845408443
0.005172511733
0.03790055298
0.01758542116
0.05746494502
0.8348867467
-0.03647725164
0.03042041285
0.2947440397
-0.06359429918
-0.002151935278
0.7819772494
-0.03725798796
0.05489316974
0.07703513076
-0.02287427969
0.1660957886
0.3775441182
0.01226996001
-0.2072516841
0.004409663332
0.183437515
0.5375053159
-0.01290385918
0.1332386464
-1.248849458
0.004531321224
0.0703121504
-0.07171513799
-0.0222152647
0.0102464213
-1.594074906
-0.006779455895
-0.08919417788
-0.2943322641
-0.01300127412
-0.1529397335
-1.547958049
-0.02150355493
-0.1127585048
-0.1712132811
-0.007620765922
-0.06848141061
-1.141224982
0.02939472177
-0.07639697316
0.04817691901
0.002024520203
-0.1431272207
-0.8411626076
-0.04545057375
-0.221613787
0.3339962032
-0.058424808
-0.231674029
-0.2619928264
0.01293777153
-0.05294164301
0.8773071936
0.0602321123
0.138431178
0.2608860975
0.03285218431
0.1630466414
0.7903158459
-0.05858913728
0.05283166916
0.05251614128
-0.08510634223
-0.02766581704
0.6045910337
-0.05173628014
0.02903101155
0.1024794209
-0.003778316882
0.168345869
0.5720181204
0.03163426389
-0.06374445838
0.02337897532
0.1701978361
0.004144937671
0.151469564
0.0186916856
0.1134759678
-0.007241044857
0.06906019065
0.02318023971
-0.01472182967
0.008888993438
-0.03690480372
0.02293773907
-0.009109892405
0.01602895125
-0.01446774436
0.03417550933
-0.03593817263
0.01070684167
-0.06646123175
-5.361770455e-07
-0.1452182289
-0.01480365847
-0.1298245337
0.02363663749
-0.04263012485
0.06123440506
0.03315827079
0.01604516089
0.04828598976
-0.01583790045
-0.02414829842
-0.040430852
-0.09600134154
-0.02723100532
-0.06412915404
0.008005929808
0.02517293633
0.0339638869
0.01047068433
2.163552415
0.1352375522
-0.2852647598
2.003777197
0.008394107136
0.1909463411
1.51396532
-0.2231088649
-0.2046097401
0.7856099503
-0.3101248165
0.22422986
0.4137015749
0.06264524822
-0.01195692566
0.0004412753095
0.04509764082
0.1911630684
-0.5936903967
-0.1030676191
-0.2056506547
-1.177794514
-0.2348199518
-0.2010636682
-1.533147783
-0.233898268
-0.2908602567
-1.661580435
-0.2877685396
-0.2090188142
-1.589281366
-0.2745324569
-0.2811549348
-1.413993068
-0.05291724534
-0.220476117
-1.046398599
0.1455951301
-0.2819168116
-0.5729613136
0.1714687622
-0.3744288785
-0.1888975646
0.04296056185
-0.3466403189
0.1731102081
-0.1258339694
-0.3652433854
0.373471097
-0.1404988042
-0.2604591172
0.5309279604
-0.1281231804
-0.3546538027
0.528023711
-0.007478469922
-0.264069467
-0.002230082606
-0.203682415
2.160227594
0.1842726306
-0.2536519097
1.879350343
-0.03633262006
0.2107256712
1.510368014
-0.2561754674
-0.1844386431
0.8999423327
-0.422610975
0.1936906456
0.449449779
0.0449371564
-0.04818495557
-0.06747699779
-0.02455210213
0.1660323337
-0.64791086
-0.2088668488
-0.1926921628
-1.201468893
-0.4322464895
-0.1551413795
-1.551849236
-0.3940817108
-0.2194548088
-1.649516554
-0.4424037261
-0.1470501867
-1.488456378
-0.4186764803
-0.2855243898
-1.297184497
-0.1605975857
-0.2932093896
-1.033679349
0.06377658723
-0.3393538086
-0.6574475316
0.1250222282
-0.3660495347
-0.2775293811
0.02952940865
-0.3050292198
0.1423689262
-0.1869442906
-0.3457697907
0.3944968185
-0.2030725186
-0.2613544122
0.5720911588
-0.2151135059
-0.3653647624
0.5492927437
-0.03847074394
-0.2605540887
-0.02966086484
-0.1911403708
2.129501186
0.139086736
-0.2002681163
1.721797807
-0.2120168996
0.2750267173
1.473280888
-0.1394987271
-0.1232916352
1.019536573
-0.4017130383
0.1963120105
0.4670054996
-0.05455407184
-0.1083232033
-0.1703121772
-0.2311145212
0.1195921014
-0.7354890629
-0.3161233329
-0.1862726932
-1.232771024
-0.6110635166
-0.08624085885
-1.56057382
-0.4692122612
-0.2051127124
-1.614831802
-0.4541911176
-0.1250985739
-1.375056009
-0.4229368067
-0.383143568
-1.166905231
-0.3100466697
-0.3590868706
-0.9817997353
-0.1857638159
-0.4414890423
-0.7059123044
-0.1106757158
-0.3675666195
-0.3586635538
-0.0367641263
-0.3044631634
0.1146900184
-0.2045040274
-0.3435798211
0.4272905233
-0.1841075919
-0.2797344338
0.639277626
-0.2550906256
-0.3645643705
0.595456567
-0.07744775166
-0.2308998141
-0.07770052207
-0.1617833517
2.111274157
0.04834604365
-0.151157296
1.682656627
-0.4725042411
0.3407285226
1.47419683
-0.03609890426
-0.03592609622
1.07449784
-0.4186877027
0.2339963815
0.4718002363
-0.224896874
-0.1382833295
-0.2451166037
-0.5241653329
0.08910632039
-0.7948452821
-0.4454229147
-0.112633482
-1.23093843
-0.7748816274
-0.02129870228
-1.533303636
-0.535124511
-0.189368844
-1.589242998
-0.4387997694
-0.1675425733
-1.347209347
-0.4070417248
-0.4150742897
-1.125291857
-0.4244850367
-0.3626037873
-0.94571517
-0.4266888934
-0.4380386037
-0.7082195731
-0.3548993391
-0.381369028
-0.4043939879
-0.1284624684
-0.3199795406
0.07250545203
-0.2228717435
-0.3753289079
0.4213566896
-0.1453281983
-0.291759433
0.666637221
-0.256004505
-0.3364737353
0.6265664922
-0.1067012736
-0.1677054841
-0.1219736973
-0.112717995
2.012038175
0.04343772443
-0.1828281778
1.676491167
-0.6160847701
0.3348745381
1.43723769
-0.007376764863
-0.02770969016
0.9908508403
-0.5613466232
0.2718198742
0.4076032204
-0.3938016073
-0.1814796627
-0.3186663504
-0.847778069
0.08496217465
-0.8495920911
-0.5453342846
-0.07952005588
-1.20929607
-0.9173588466
0.02536407738
-1.450212443
-0.603006721
-0.3395856311
-1.562598931
-0.559638499
-0.2633236409
-1.367137702
-0.4282524794
-0.604814902
-1.129513125
-0.4783982945
-0.2934327689
-0.8678573477
-0.4401560684
-0.482389525
-0.6162348036
-0.4563086222
-0.391621194
-0.3669672277
-0.1793079451
-0.3926602672
0.08078764035
-0.2667455836
-0.412565262
0.4349649248
-0.08964004082
-0.302885538
0.7115489663
-0.2312534484
-0.2840416773
0.6894327503
-0.1009962255
-0.07941557701
-0.1505396436
-0.05449257277
1.94365041
0.1633193896
-0.2359147684
1.768311444
-0.545256364
0.2558835629
1.440271596
-0.05587911596
-0.06178888318
0.9075663288
-0.7888879585
0.2842532675
0.3684781562
-0.5238748023
-0.1591742715
-0.329255231
-1.122076441
0.1063539967
-0.8650712488
-0.6068168875
-0.0007851544874
-1.162700849
-1.002147224
0.05536477032
-1.368747802
-0.6839809878
-0.3882910002
-1.522017473
-0.8568309306
-0.3456835272
-1.403793439
-0.5940257606
-0.6452366908
-1.174922993
-0.4926829154
-0.2206229801
-0.8448406059
-0.2475636575
-0.4264831401
-0.559456514
-0.3868963444
-0.3943233923
-0.3460246608
-0.1606340613
-0.3961180778
0.07231196069
-0.2847801791
-0.413688302
0.4161613984
-0.01036450731
-0.2724882396
0.6979215217
-0.1842748204
-0.2142038776
0.7034072274
-0.05394095385
0.005804039016
-0.1594522257
-0.009728105984
1.830838587
0.3527976421
-0.2894136862
1.675249946
-0.4728998893
0.1916881689
1.320081822
-0.1355603935
-0.1424437458
0.7735529206
-1.041095512
0.291515827
0.2871845849
-0.5721336144
-0.1234763127
-0.3395967352
-1.326499739
0.1550400612
-0.8715685738
-0.612782608
-0.02459745394
-1.16148869
-1.046441366
0.06007478011
-1.331420164
-0.646878354
-0.4748764144
-1.449402762
-1.125945518
-0.34239583
-1.302755001
-0.6560124144
-0.9672603979
-1.113291304
-0.5426646675
-0.208312183
-0.8022165413
0.01406014149
-0.5195965867
-0.5239597119
-0.2810832965
-0.3643707407
-0.2887125052
-0.05281368009
-0.3887049182
0.1319343518
-0.2345758355
-0.3579325864
0.4510637598
0.1138276611
-0.2339100855
0.7245075974
-0.1270055378
-0.1726554523
0.7477197758
0.02746650606
0.02680492445
-0.1671250854
-0.01066828009
1.824855562
0.4309470141
-0.2689823096
1.55062467
-0.5593334483
0.1633723202
1.228596684
-0.2212261714
-0.1497952891
0.7185275056
-1.207061826
0.3111412493
0.2726621035
-0.5792370039
-0.01258406223
-0.2902342254
-1.437283152
0.208184941
-0.8216481623
-0.6212430136
-0.03273543807
-1.177912759
-1.086415589
0.03889923593
-1.382314524
-0.4861456987
-0.3576124521
-1.409674813
-1.146538679
-0.2975929217
-1.118912097
-0.411212904
-1.166658585
-0.963758043
-0.6219292348
-0.3372952226
-0.8067306482
0.1507509713
-0.5532505896
-0.5676936624
-0.2382364348
-0.3446944011
-0.2906892516
0.1146842324
-0.2894547291
0.1436618269
-0.1175375873
-0.2708350875
0.4301692377
0.2634495332
-0.170901029
0.6746959174
-0.05833352877
-0.1696209648
0.7218586183
0.1139276547
-0.01856591996
-0.1675084173
-0.0555065325
1.681968924
0.3870284685
-0.2275868436
1.313551823
-0.8222300971
0.2009556785
1.044820417
-0.2400361855
-0.1166814227
0.6229658329
-1.274786652
0.3442782304
0.2060295415
-0.5346358109
0.02798599777
-0.2704337111
-1.502645378
0.2315538001
-0.7632499451
-0.6584069644
-0.1018797028
-1.15793168
-1.20953209
0.04433819511
-1.387552803
-0.3166809643
-0.2405297905
-1.334068822
-0.9982930413
-0.09379933315
-0.9450682055
-0.123349404
-0.9114192478
-0.8191701048
-0.7323413288
-0.3505608424
-0.7594696939
0.0840867897
-0.5928633832
-0.555109025
-0.3061507703
-0.2927141049
-0.2314940388
0.2959813636
-0.2344796311
0.2071293117
0.008081695205
-0.1900965916
0.4531301828
0.40145018
-0.1437070902
0.6629890084
-0.003081738988
-0.1991115638
0.7392361507
0.1982684935
-0.1070387369
-0.1514892719
-0.1200504695
1.607404929
0.3200627643
-0.1712238225
1.234909092
-1.059470606
0.234881391
1.003938151
-0.1647880278
-0.04236222685
0.6192340229
-1.271246549
0.3490713283
0.2020700089
-0.4779990092
0.05375278602
-0.2279205081
-1.538668851
0.231730323
-0.6724174025
-0.7111208466
-0.07744076132
-1.075285296
-1.385308437
0.04454391145
-1.362527451
-0.2388923243
-0.07339292015
-1.302606229
-0.8265372142
4.101117188e-05
-0.9015753954
0.1402677941
-0.5587237252
-0.7479947594
-0.7365241402
-0.3304061213
-0.7035783124
0.02014162315
-0.458939615
-0.514547001
-0.3482173837
-0.2706627201
-0.2066726882
0.4281922126
-0.1856364678
0.1826877047
0.09915879898
-0.171538727
0.3795739926
0.4740203776
-0.1295248163
0.5730911846
0.03495597633
-0.2232277871
0.6741216243
0.2934046718
-0.1568660837
-0.1093544879
-0.1494920543
1.365255276
0.3531738391
-0.170952641
1.105795602
-1.099367487
0.2532876708
0.8835735657
-0.04462331386
-0.04072864196
0.5019552694
-1.304184157
0.293888158
0.1010507037
-0.464068671
-0.01583301502
-0.2706202472
-1.6136984
0.2176361454
-0.6057134538
-0.735088824
-0.07014505007
-0.9437940124
-1.550744145
0.05194672329
-1.231369032
-0.2605297718
-0.1129187502
-1.23702665
-0.7788635612
0.05225505022
-0.9061721381
0.3508532355
-0.3855225723
-0.706495258
-0.6212043859
-0.160082255
-0.5556776022
0.151072949
-0.3606521588
-0.3537759377
-0.2879332313
-0.2352537744
-0.09903460529
0.5339992132
-0.2337435184
0.2147076276
0.1032867357
-0.2039173672
0.3793814163
0.4903146259
-0.1580438783
0.5743174177
0.0597437559
-0.2184794047
0.6770408706
0.3944443842
-0.1388052624
-0.0745601476
-0.1226572936
1.302566
0.4782540577
-0.1693623537
1.130998569
-0.9827023008
0.2368243623
0.8759674504
0.02339110122
-0.05554308918
0.4490648663
-1.412715629
0.2283896795
0.06816034491
-0.5150016081
-0.02725261212
-0.2731965941
-1.697425354
0.2337671415
-0.524039077
-0.6780639427
0.04516687881
-0.7871787959
-1.591707694
0.06918902642
-1.038945761
-0.3120755287
-0.1005541769
-1.14509169
-0.8518060684
0.006158358935
-0.9678860141
0.3863913385
-0.1294239501
-0.7315732572
-0.4690250366
-0.02882096517
-0.4972041112
0.3883228267
-0.1665888055
-0.2800096037
-0.1296073089
-0.2136077035
-0.09260860108
0.6246971037
-0.2303718876
0.1532172843
0.07793217609
-0.2456130758
0.3170930393
0.4900662502
-0.1540195769
0.5083516413
0.07804979535
-0.1739116439
0.5788157742
0.4619891139
-0.05986132646
-0.06087227707
-0.06256343966
1.104092599
0.6367476695
-0.1643007893
0.9569469259
-0.9078095895
0.1917827914
0.6828866834
0.01457973647
-0.1205015115
0.280880429
-1.573685553
0.1617631044
-0.03990534348
-0.5676072438
-0.05454685038
-0.3137726772
-1.759542059
0.2357618124
-0.4911412009
-0.5372684702
0.08790118987
-0.662330327
-1.498834792
0.08432274532
-0.833004789
-0.282687762
-0.186933057
-0.97408716
-0.9608540413
-0.04304854027
-0.8990323846
0.3128238371
-0.09865895096
-0.6820020696
-0.3791386981
0.0530953036
-0.3889424638
0.6103140535
-0.1288380412
-0.1764355535
0.01363332473
-0.1797614921
-0.040129169
0.7050504803
-0.2240535981
0.1842015115
0.08804877368
-0.2250174171
0.372444877
0.5328602694
-0.1418639617
0.5530094065
0.08935282713
-0.1318588837
0.5682219086
0.4649950855
-0.01984715123
-0.08549262702
-0.02416430931
1.094877656
0.7006401548
-0.137400186
0.8701025858
-0.9684437678
0.1570539998
0.5968673765
-0.04387795965
-0.1121214084
0.2407565918
-1.687851972
0.1639135747
-0.007815860232
-0.5606610121
0.01013770815
-0.2390095886
-1.756931179
0.2613986055
-0.4119196233
-0.3877349298
0.1522166774
-0.5590890789
-1.363049491
0.1152139057
-0.6987904099
-0.1925611589
-0.0945688202
-0.8336640479
-1.012257879
-0.03018032013
-0.8131567753
0.2273212501
-0.007627462646
-0.6273827737
-0.3565675605
0.04299051968
-0.3768245847
0.6927213957
-0.07586404218
-0.2075432642
0.07762739567
-0.1504083142
-0.1091256051
0.7474534253
-0.1187619745
0.1084615834
0.1548963967
-0.1325086967
0.3175324667
0.6294210299
-0.07584394179
0.472536681
0.1066565267
-0.1128616794
0.4478306877
0.4163746025
-0.02240242513
-0.1337383609
-0.03258437066
0.8679650943
0.6489550888
-0.1140123506
0.5942410365
-1.139068915
0.1136434139
0.3532110572
-0.07586305144
-0.0980228545
0.1055189982
-1.707115662
0.1450941954
-0.03622718373
-0.4520210391
0.005776268303
-0.1981064229
-1.717865022
0.2091188304
-0.3633364174
-0.3127829284
0.07938954678
-0.4994436958
-1.30915718
0.09937247334
-0.6092084779
-0.1084094406
-0.03118009519
-0.692434361
-0.9805548849
0.01965380467
-0.6215798603
0.2460971275
-0.04421733542
-0.4643918028
-0.3351692016
-0.02327990656
-0.2703868937
0.6902328087
-0.1381358628
-0.1555720043
0.03484462463
-0.1338558836
-0.06649734984
0.7506714337
-0.07135333537
0.1460203339
0.2505327501
-0.05076281472
0.3482250683
0.7552165946
-0.05102290604
0.4787557743
0.1282064306
-0.1239053291
0.438676754
0.3731623124
-0.08288562589
-0.192798951
-0.0661782219
0.824434306
0.551416406
-0.0924051972
0.5274129677
-1.295652453
0.1007569888
0.3214742034
-0.05737731488
-0.03869279932
0.1322501624
-1.645936754
0.1609313681
0.04418522837
-0.2982326485
0.0433451467
-0.08731637451
-1.671464067
0.1877181321
-0.2598768197
-0.3465311123
0.07308815263
-0.4196092966
-1.355547973
0.1146963222
-0.5610536951
-0.0773130375
0.1013741201
-0.5970206528
-0.918845178
0.09331132335
-0.5112379045
0.3433951147
0.01657510157
-0.3855665466
-0.2612688706
-0.0504299571
-0.2671610332
0.6836823089
-0.09125368369
-0.1735731304
-0.01214222426
-0.08907622636
-0.09491229361
0.7384210477
-0.01034075771
0.0707134451
0.3052628198
-0.02117444521
0.2199038649
0.8331771728
-0.02191766521
0.3223497072
0.1499997705
-0.1158934103
0.3086110666
0.3616394402
-0.08911370696
-0.2229939723
-0.08097099551
0.5415979981
0.509357756
-0.08665133461
0.3162491005
-1.383725355
0.05816236871
0.1530980314
-0.01773117869
-0.04439995433
0.03406598047
-1.587712928
0.08704261505
-0.02455119441
-0.1728265919
-0.006142234168
-0.09811817321
-1.624226077
0.09531504536
-0.2061155963
-0.3691882866
-0.009107582465
-0.3361575006
-1.408415964
0.06473534458