/*--------------------------------*- C++ -*----------------------------------*\
| =========                 |                                                 |
| \\      /  F ield         | OpenFOAM: The Open Source CFD Toolbox           |
|  \\    /   O peration     | Version:  5.x                                   |
|   \\  /    A nd           | Web:      www.OpenFOAM.org                      |
|    \\/     M anipulation  |                                                 |
\*---------------------------------------------------------------------------*/
FoamFile
{
    version     2.0;
    format      ascii;
    class       volVectorField;
    location    "9.2";
    object      U;
}
// * * * * * * * * * * * * * * * * * * * * * * * * * * * * * * * * * * * * * //

dimensions      [0 1 -1 0 0 0 0];

internalField   nonuniform List<vector> 
30538
(
(0.1050304726 -0.00106233397 -0.009806209246)
(0.0981480081 -0.005312564623 0.0007556378712)
(0.0682852613 -0.003552555537 -0.004761991031)
(0.05483952638 -0.002411828711 0.005713203645)
(0.02251679662 0.004487278674 -0.001792147747)
(0.02544096919 0.001374830332 -0.0002303891551)
(-0.01551883076 8.342264248e-06 -0.00448272834)
(-0.03170903392 -0.005771524484 -0.004832882779)
(-0.072110243 -0.004467225524 -0.005093223769)
(-0.0677101589 -0.00696046852 -0.005379657055)
(-0.08761363528 -0.0001490244137 -0.003535762713)
(-0.05800188422 0.003566210095 -0.003939628007)
(-0.05878781733 0.007659884456 -0.005232599612)
(-0.02495406777 0.001146312809 -0.009648100404)
(-0.03369691813 0.000281149886 -0.006146700279)
(0.003061878722 -0.002117942058 -0.003565071147)
(0.01278885512 0.0001614081287 -0.0026313067)
(0.03436514297 -0.002347874295 -0.007796117781)
(0.01924487013 -0.0005171073978 -0.008337027452)
(0.007512679694 -0.001768562527 -0.005535692394)
(0.1005473736 -0.00463001165 -0.007485316482)
(0.09640622033 -0.01275605749 0.003539318995)
(0.07023971764 -0.01204124535 -0.004587644664)
(0.06054637706 -0.006936689519 0.004036437049)
(0.02510719103 0.00402596025 -0.002422905504)
(0.02228674059 0.0004560865575 -6.184060251e-05)
(-0.02060957322 -0.008214509723 -0.004235835156)
(-0.03478728087 -0.01521475205 -0.003636431252)
(-0.07297085835 -0.01838325469 -0.003749216148)
(-0.06457605591 -0.01537741927 -0.00436021472)
(-0.08022863601 -0.009770934959 -0.004762102758)
(-0.0525050549 0.005093059737 -0.00589399937)
(-0.06052756735 0.006107699148 -0.006093231532)
(-0.03017551773 0.001125324634 -0.008163589327)
(-0.03592002224 -0.004100009658 -0.004951679909)
(0.002887126403 -0.002189998844 -0.003784676207)
(0.01273382099 -0.00293779898 -0.003437)
(0.03390956472 -0.006308941067 -0.007790390423)
(0.01958635642 -0.00706956169 -0.007573423752)
(0.009062461445 -0.004382877864 -0.004761685349)
(0.0928881067 -0.003026758613 -0.004652090161)
(0.09284812324 -0.0162826761 0.00778178661)
(0.07232763349 -0.009755743363 -0.003837448823)
(0.06614271976 -0.009224980237 0.002480000739)
(0.02764987922 0.004625366811 -0.003352723248)
(0.01681006588 -0.004794368755 0.0001743000284)
(-0.02660255621 -0.008457422733 -0.003771276356)
(-0.03881156482 -0.01930705318 -0.002856876657)
(-0.07229134829 -0.01287777633 -0.002515097206)
(-0.06150576646 -0.01476724707 -0.004355623459)
(-0.07323930652 -0.006691918003 -0.005955040539)
(-0.04676787404 -0.002819778909 -0.00807006458)
(-0.06163653264 0.002506339201 -0.006529425132)
(-0.03217355599 -0.003987145959 -0.006724385059)
(-0.03595519501 0.001097584899 -0.003977475422)
(0.003782799223 0.001207823678 -0.00539974184)
(0.01002843685 0.001175452976 -0.00496736239)
(0.03142776116 -0.01136394039 -0.007319205176)
(0.02061886067 -0.01175665075 -0.005244852771)
(0.01524502787 -0.009781907656 -0.003072712898)
(0.08704039224 0.0003617580503 -0.002623016059)
(0.09145280619 -0.0148072444 0.01041556071)
(0.07550413191 -0.006053617763 -0.00258502838)
(0.07052027657 -0.0123879786 0.001868172897)
(0.02835553116 -0.003804818498 -0.003832879016)
(0.0130089202 -0.0144134854 0.001000580103)
(-0.03090886545 -0.01660629541 -0.00312178009)
(-0.03783168439 -0.02220122786 -0.002073752123)
(-0.06990549943 -0.01304826494 -0.003354279887)
(-0.06008942386 -0.01139203547 -0.004198819002)
(-0.07187486624 -0.01369461484 -0.007302055387)
(-0.04600748699 -0.01421953568 -0.008055537511)
(-0.06135661219 -0.01368779144 -0.006998689679)
(-0.03118267771 -0.01071706305 -0.00546470342)
(-0.03225691521 -0.000785738086 -0.004582689942)
(0.002956548141 0.003726982417 -0.007839318441)
(0.003835312251 -0.000459143891 -0.00688156691)
(0.02476356985 -0.01465380199 -0.005977981018)
(0.02086784319 -0.01805263845 -0.001923165926)
(0.02374044812 -0.01214496824 -0.0007199849754)
(0.08280120213 0.006595646027 -0.003621809007)
(0.08812833597 -0.01055038431 0.009799945681)
(0.07436331123 0.00157654375 -0.002375460762)
(0.06752582509 -0.01740498214 0.002217362958)
(0.02639073888 -0.008693755598 -0.004218173493)
(0.007704331945 -0.02373002356 0.001340683417)
(-0.03213823781 -0.01646189138 -0.002389511881)
(-0.03619590106 -0.0253311316 -0.00307778621)
(-0.06478854 -0.008350869624 -0.004961050327)
(-0.06184889698 -0.01196939523 -0.005748709671)
(-0.07534285276 -0.01055019639 -0.006740383176)
(-0.04674635565 -0.0212165249 -0.007190847327)
(-0.05920230168 -0.01575181446 -0.005981376945)
(-0.02307934751 -0.01475891681 -0.005299314535)
(-0.02582451005 0.001088487604 -0.005673037342)
(0.004092685582 -0.000414049877 -0.0107259318)
(-0.003068949856 -0.0005123607409 -0.008046015033)
(0.01898779654 -0.01650753951 -0.003931671745)
(0.02264573382 -0.01549630634 0.002083286032)
(0.03595519638 -0.0129881005 0.001734327879)
(0.08429998118 0.009426694075 -0.005527617475)
(0.08796324945 -0.007633604109 0.006302666339)
(0.07088250098 0.001425124762 -0.002894620856)
(0.06306909798 -0.02580909931 0.003298720427)
(0.02401023272 -0.01895917727 -0.003770376372)
(0.007446324312 -0.03323138672 0.002223039452)
(-0.0320998867 -0.02128042017 -0.002275784448)
(-0.03194876218 -0.03142570781 -0.002810226897)
(-0.06062522421 -0.01921154513 -0.007329246119)
(-0.06146567083 -0.02175444092 -0.005303180616)
(-0.07848489598 -0.01552959982 -0.007828786061)
(-0.04968825527 -0.01960951783 -0.005026389753)
(-0.05679291526 -0.01399880771 -0.006308851187)
(-0.0193686771 -0.01419563199 -0.005030231219)
(-0.02213668334 -0.006127032406 -0.007123347324)
(0.001860331473 -0.01067381283 -0.01155878849)
(-0.007589428392 -0.006891363868 -0.008074389742)
(0.0141646126 -0.01288392688 -0.001655909983)
(0.02357610324 -0.00776281176 0.004457683214)
(0.04321988075 -0.006851377688 0.003389174817)
(0.08400779214 0.0118132894 -0.007456316413)
(0.08262645692 -0.0082919012 0.003738846312)
(0.06182790283 -0.001306949046 -0.003800592968)
(0.05291283136 -0.03341226383 0.004408419221)
(0.02126044556 -0.02176396866 -0.002761247609)
(0.006017857894 -0.03847791291 0.001897052577)
(-0.0309222784 -0.01816392612 -0.001888071668)
(-0.03456060827 -0.03580441532 -0.003076748199)
(-0.05809006612 -0.0247204727 -0.006403662233)
(-0.05909019944 -0.03417932304 -0.005954382873)
(-0.0738954147 -0.0121853372 -0.007539455722)
(-0.04567966059 -0.01249585678 -0.005461560459)
(-0.05536238013 0.001760517404 -0.005832108821)
(-0.01762926815 -0.009819538835 -0.005472006438)
(-0.02329123909 -0.006803031695 -0.00623796074)
(0.003513277961 -0.01984302369 -0.009855655142)
(-0.004565850191 -0.007123297185 -0.005880874305)
(0.01837924134 -0.006387495111 -0.0007151592349)
(0.02708593847 0.007105504256 0.004241008701)
(0.04568087136 -8.323607497e-05 0.002834708371)
(0.08666341084 0.01157934301 -0.007088064161)
(0.07884327002 -0.01522113848 0.002644562309)
(0.053585653 -0.008412217515 -0.003226421985)
(0.04838034507 -0.04044211068 0.005704556335)
(0.02065520578 -0.02449844333 -0.001270120141)
(0.009914850494 -0.04367394779 0.001962641331)
(-0.03029441981 -0.02037507895 -0.00223955324)
(-0.03637615059 -0.04043382975 -0.0009223423516)
(-0.05964546931 -0.03046092091 -0.005564637394)
(-0.05246509685 -0.04362584861 -0.004357123149)
(-0.0632223918 -0.01456303079 -0.01272103106)
(-0.03990819753 -0.01186888456 -0.006717973045)
(-0.05486213251 0.007699384461 -0.008578139443)
(-0.0255241738 -0.00713218362 -0.00543759008)
(-0.0291776755 -0.007119906069 -0.005187168852)
(0.001595735776 -0.02124443698 -0.005797587963)
(0.001959435805 -0.005831528152 -0.003162986545)
(0.02429988121 0.0007267934303 -0.001029752222)
(0.02825528424 0.01600253673 0.0007494791066)
(0.03768952458 0.005826980357 0.0005723758046)
(0.08118192271 0.009854209837 -0.006518313149)
(0.06872416803 -0.02438632111 0.003562092561)
(0.04442977265 -0.01013188115 -0.002864835991)
(0.04127912127 -0.04029544966 0.006179940936)
(0.01924056002 -0.01955755268 -0.0003770670328)
(0.008831899523 -0.04500962207 0.00105816136)
(-0.02870916943 -0.01852900138 -0.001908392484)
(-0.04142924191 -0.03970889219 -2.978535535e-05)
(-0.06052708498 -0.02211818128 -0.001093691507)
(-0.04772436373 -0.04184398777 -0.003284353205)
(-0.05151933486 -0.01240232398 -0.01001764121)
(-0.03007610716 -0.01907063349 -0.008578943054)
(-0.05196427362 0.006870387796 -0.008104409037)
(-0.02819613542 -0.006787009409 -0.005934273424)
(-0.03325060254 0.003365771703 -0.002822089474)
(0.004437412859 -0.01225811985 -0.002086761289)
(0.01093810241 0.004301608838 -0.0002441580562)
(0.03388752861 0.003659484459 -0.002543063792)
(0.03093250453 0.01849305167 -0.003205620535)
(0.02975255395 0.0040494798 -0.002751103695)
(0.07602302824 0.008265020733 -0.005162225858)
(0.06499551691 -0.03402779736 0.004341802168)
(0.04275392323 -0.008562192213 -0.00207162351)
(0.04141809803 -0.03870380287 0.006175231974)
(0.01759189062 -0.01659427414 1.066223208e-05)
(0.01054732566 -0.05032999488 0.001526953531)
(-0.02664283164 -0.02258712052 -0.002339388313)
(-0.03861711632 -0.04231142624 0.001371198577)
(-0.06134684737 -0.01273708314 2.408789719e-06)
(-0.04545735726 -0.03670955776 -0.0003775558603)
(-0.04722117827 -0.01303083603 -0.009484403344)
(-0.02639296232 -0.03235096359 -0.007417623558)
(-0.04612717476 -0.004462937776 -0.008795691754)
(-0.02810502832 -0.01084061991 -0.005925841923)
(-0.03301026329 0.0121390449 -0.002986085466)
(0.002261993006 0.0001587726584 -0.0001438288916)
(0.01317672995 0.01270017634 0.0006254467975)
(0.03433670582 0.002624880252 -0.003374025905)
(0.02870383511 0.01118687575 -0.005906762592)
(0.02130563498 -0.00157913213 -0.004400777982)
(0.0625421251 0.008074130964 -0.00500323891)
(0.05713924138 -0.03585025788 0.004962725941)
(0.04150025825 -0.002927107138 -0.002364772307)
(0.03530734979 -0.03461941605 0.004806842975)
(0.01129275265 -0.01346500267 -0.0002673246142)
(0.004553292023 -0.05274412983 0.001625266758)
(-0.02316517963 -0.02388561708 -0.002003200632)
(-0.03412971091 -0.04147903253 -0.0001571986892)
(-0.05680486696 -0.001977876296 0.0006522857087)
(-0.04777488479 -0.02600105754 0.0001388533018)
(-0.04851661091 -0.00550226214 -0.004113085772)
(-0.02407345891 -0.03406763724 -0.00498071469)
(-0.03671083694 -0.006406844743 -0.006221342175)
(-0.01659614273 -0.01133690426 -0.006191896756)
(-0.02539741117 0.0200675516 -0.003383885354)
(0.004761347451 0.009370740722 -0.001062101009)
(0.01267916155 0.02043746288 0.0002048985987)
(0.03283528113 0.0001894675276 -0.003594672966)
(0.02806405815 0.004938644151 -0.005311074438)
(0.02251700509 -0.007968125728 -0.004016004509)
(0.05597952595 0.01078301715 -0.004046294049)
(0.0575103814 -0.03387296142 0.004938006925)
(0.04401387645 0.0007832759735 -0.002074071278)
(0.03367639701 -0.0391062773 0.003673247484)
(0.005114235323 -0.01622261364 1.547698786e-05)
(0.00312570673 -0.05924268583 0.003548854555)
(-0.01885655848 -0.02667481459 -0.001593887744)
(-0.02281994997 -0.04725269234 -0.0008960323367)
(-0.05068908169 -0.002777567049 -0.002001332039)
(-0.04779913575 -0.02528611799 0.001032688445)
(-0.05298882709 0.001884483847 -0.001347304894)
(-0.02709198738 -0.02859769727 -0.0009876025064)
(-0.02999953478 -0.0006218577904 -0.004266398626)
(-0.009562895652 -0.01151784069 -0.005176089774)
(-0.01828259755 0.01825182097 -0.004581814204)
(0.002418737904 0.007659453245 -0.002701955561)
(0.006663775239 0.01938283915 -0.001441800386)
(0.02341630935 -0.001233459074 -0.002611313552)
(0.02298749852 0.003121595547 -0.002612972313)
(0.02308272983 -0.009064635182 -0.001915010413)
(0.04584043932 0.0147017332 -0.003656444318)
(0.05038320828 -0.02779239562 0.005022323107)
(0.03824447656 0.001302353834 -0.002662523641)
(0.02296740859 -0.04402506397 0.00234277272)
(-0.002598199759 -0.01799215369 -0.0001005665869)
(-0.002887639899 -0.05725872921 0.004184289483)
(-0.01484895418 -0.0230824069 -0.0007364818774)
(-0.01691155748 -0.04797724223 -0.002650885739)
(-0.04154021972 -0.007539283068 -0.003219447628)
(-0.04434954791 -0.02563031364 -0.000293782597)
(-0.05091978844 0.009146105854 0.0009645126563)
(-0.02592796986 -0.01397082506 0.0001557609279)
(-0.02457763553 0.01345922295 -0.002250552964)
(-0.003415090985 -0.005860830624 -0.004273392958)
(-0.01179197828 0.01595596839 -0.003564756922)
(0.005533185146 0.00142712574 -0.00372496134)
(0.006287265212 0.01708664743 -0.002038661109)
(0.02136485471 0.0006061796631 -0.001869850583)
(0.02257038135 0.009905768091 -5.88784218e-06)
(0.02640439678 -0.006398561144 -0.0002426122718)
(0.04641981323 0.01933874084 -0.002409798661)
(0.04835487853 -0.02729639056 0.004636135154)
(0.0329919365 -0.001602804711 -0.002029616227)
(0.01972008791 -0.05280884802 0.002436390052)
(-0.003920880978 -0.0186723237 0.0003665956144)
(-0.000534095316 -0.0561584589 0.005159520582)
(-0.01246312778 -0.0179149411 0.0004022972415)
(-0.01151478132 -0.05203416264 -0.001041610234)
(-0.03515250118 -0.01417965693 -0.002791641874)
(-0.03587302594 -0.0342075094 0.0003232833581)
(-0.04483480509 0.01009038482 0.0005482206692)
(-0.02412155915 -0.007980797796 0.0001876938615)
(-0.02423880703 0.02213894909 -0.002375647745)
(-0.007923481208 -0.002833205111 -0.002501664999)
(-0.01309668821 0.01445747737 -0.001628257311)
(0.003253826964 -0.003914068332 -0.002076476353)
(0.005917989913 0.01553063255 -0.001685908355)
(0.01840190855 0.003492050748 -0.001470533783)
(0.01812114979 0.01595782884 0.0003460387456)
(0.0202740924 -0.002660657875 0.0002309463877)
(0.0399368702 0.01965125155 -0.002017801979)
(0.03600183437 -0.02871076487 0.003668401038)
(0.02066330262 -0.004057562919 -0.002086428834)
(0.01059936578 -0.05284451297 0.001950250854)
(-0.004649344058 -0.0144168788 -0.0004164735202)
(-0.002433469828 -0.04882024686 0.003451359122)
(-0.01211048624 -0.01114248111 0.0007941415652)
(-0.01394918418 -0.04786518465 -2.59437948e-05)
(-0.02917944906 -0.01356509381 -0.000410199951)
(-0.02707210926 -0.033539488 0.0001206795565)
(-0.03247594383 0.009796471123 -0.0003122110085)
(-0.01749175661 -0.005518447037 -0.00202449365)
(-0.02089476817 0.02352838261 -0.002807995107)
(-0.008975654945 0.0004860922787 -0.001986012808)
(-0.01250831633 0.01964337152 0.0004798529811)
(0.006313687972 0.00163497991 -0.0002569465532)
(0.01141814468 0.02021636359 -0.0008469732729)
(0.02179396916 0.005198194684 -0.002028222357)
(0.01834177208 0.0168958835 -0.0008452947328)
(0.01663044676 -0.003112614126 -0.0004353837337)
(0.03985115585 0.01899914317 -0.001417637757)
(0.03193466996 -0.03608082001 0.002753193184)
(0.01634665479 -0.003779048543 -0.001295911023)
(0.01205229246 -0.0531793615 0.002207579229)
(-0.000799285897 -0.009807104321 -0.0005702978372)
(0.001706012593 -0.04863680421 0.002557966339)
(-0.01194522581 -0.009632880637 0.001236116462)
(-0.01291087701 -0.04839954303 0.002669634)
(-0.02527834907 -0.008691270689 0.002116407334)
(-0.01925092492 -0.0321917672 0.001484999019)
(-0.02514486287 0.01012892806 -0.0008022714254)
(-0.01450126213 -0.01151919328 -0.002052452881)
(-0.01994947882 0.01790912201 -0.002485712479)
(-0.01078917159 -0.002657032598 -0.001100089356)
(-0.01223153439 0.02514912542 0.0008224880804)
(0.003638412194 0.01062816347 0.0005833734778)
(0.008374866946 0.02559859743 -0.0005428999521)
(0.01616549799 0.00378307349 -0.002053343091)
(0.01238634483 0.01181107037 -0.001608140814)
(0.01014008055 -0.006629268399 -0.0008017586142)
(0.02776252936 0.01561556727 -0.001714670337)
(0.02020990008 -0.03884620362 0.001677094047)
(0.008958336743 -0.002303740924 -0.001493763681)
(0.006010632894 -0.04737560002 0.001125982765)
(-0.00121394117 -0.006858882223 -0.001548726052)
(-0.002340328938 -0.0459295716 0.0001221922967)
(-0.01206402345 -0.01046995458 0.000466834244)
(-0.01296925367 -0.04337328939 0.002465314691)
(-0.01793199764 -0.001595861651 0.002451616435)
(-0.0136492564 -0.02382669441 0.0001817474363)
(-0.01796159263 0.01361909023 -0.001231944587)
(-0.01203090852 -0.01097718566 -0.001679330376)
(-0.01459897499 0.01440939306 -0.0009459927798)
(-0.003942616101 -0.003098388826 -0.0009504443686)
(-0.003086976562 0.02889281475 -0.0003776818477)
(0.006618152955 0.0157763047 -0.00108300089)
(0.006445718169 0.02907833723 -0.001016133727)
(0.01211884445 0.002294176954 -0.001744455381)
(0.0111183226 0.007701072665 -0.001127884198)
(0.01251226016 -0.00982870663 -0.0005100928013)
(0.02343994252 0.01523829701 -0.001181801203)
(0.0194272026 -0.04385620799 0.001244305508)
(0.01064558807 -0.001198853744 -0.0006314000002)
(0.008574412141 -0.05084626165 0.001309198019)
(0.0004455626665 -0.005693853878 -0.0006665498572)
(-0.0008980878034 -0.05178635785 0.0001513955182)
(-0.01030281153 -0.01064240527 0.0007167799413)
(-0.006422908647 -0.04493872713 0.003184417042)
(-0.01166765267 0.002519329201 0.002022323721)
(-0.008401750388 -0.02302012383 -6.898893238e-06)
(-0.01615141998 0.01562263791 -0.001076892446)
(-0.01396465272 -0.01084764072 0.0004579306661)
(-0.01436626848 0.01652020145 0.001672210826)
(-0.0006608483936 -0.002385900039 0.000523844327)
(0.001099209776 0.02828444296 -0.00154152148)
(0.003773305609 0.01344927221 -0.002143317751)
(-0.001270305634 0.02736138003 -0.001446758249)
(0.001096914616 0.002130150656 -0.000651525186)
(0.003996919822 0.00897728326 0.0004453689317)
(0.01117608547 -0.009009141852 0.0004662007167)
(0.007566792548 0.01483632745 -0.0008288736305)
(0.008586806407 -0.03879900318 0.0005533924808)
(0.004128086378 -0.002460205259 -0.0009756403571)
(0.002509181168 -0.04702520202 -3.87178739e-06)
(-0.001784784447 -0.007880404112 -0.0008933063192)
(-0.005885983754 -0.04765057875 -0.001216374282)
(-0.007245032932 -0.008436710868 -8.107740073e-05)
(-0.003427196302 -0.03619077423 0.001107101035)
(-0.002423942297 0.002633661757 -7.242687651e-05)
(-0.004248086193 -0.02338138797 -0.00214302438)
(-0.009349705855 0.01359437319 -0.001479917204)
(-0.01144301383 -0.008746438158 0.0008593832725)
(-0.008651527178 0.02384997727 0.002493996192)
(0.004231460935 0.004722239708 0.0007843733831)
(0.008086275113 0.0258638715 -0.002136640278)
(0.005936047249 0.006224108458 -0.003174071074)
(-0.001502707434 0.02288531835 -0.001770149872)
(-0.0007870411818 0.002530026 -7.069969578e-05)
(0.003467391252 0.01510005874 0.001242042496)
(0.01219032419 -0.004265751117 0.0009715796295)
(0.00650083979 0.02042322271 0.000236591859)
(0.007977710422 -0.04067488592 0.000609790659)
(0.005089042577 -0.001743481127 -5.438713508e-05)
(0.005273827534 -0.05336068022 0.0008586135019)
(0.0001617166956 -0.01169084774 0.0002325429422)
(-0.001239776998 -0.05045154913 0.0008256503163)
(-0.002386460134 -0.001878455096 0.0005098099472)
(0.001363694322 -0.03666689976 0.001353185711)
(-0.002893765807 0.0002667058617 3.972254414e-05)
(-0.0008304002612 -0.0296986548 0.0001111275536)
(-0.005873956204 0.006799692686 -0.0004510122272)
(-0.006830850511 -0.007839999588 0.001220545999)
(-0.004732661821 0.03233220886 0.0021890987)
(0.0008966529715 0.01170781663 0.0004997379877)
(0.002221989657 0.02542707199 -0.0008885922493)
(0.001608374948 -0.002976882214 -0.001317705063)
(-0.003907193463 0.01486316214 -0.001063609078)
(-0.004618588848 0.004246921718 0.0003396618778)
(-0.0008906797104 0.02176915565 0.001187131686)
(0.003079849091 -1.803132314e-05 0.0005034117167)
(0.09408410821 0.003321963726 -0.0131615887)
(0.1042383054 -4.586545602e-05 0.0005501732382)
(0.07484339987 -0.003275485326 -0.006722477894)
(0.05886555496 -0.005662028607 0.01094274275)
(0.01453247026 0.003259227201 -0.000306079712)
(0.02187947662 0.001672964944 0.00522878839)
(-0.02175774349 0.0004705084929 -0.01246111099)
(-0.03248942041 -0.003497646573 -0.009075261452)
(-0.0728190235 -0.001914372211 -0.01632574599)
(-0.06545028203 -0.005038143799 -0.009915038181)
(-0.08574487232 -0.002538555428 -0.01558121433)
(-0.06011481342 -0.0001727575991 -0.008195547528)
(-0.06647324724 0.005964434907 -0.0164976433)
(-0.02607944499 0.003887534031 -0.02144007881)
(-0.02548296314 0.002519531479 -0.01889538128)
(0.007769180226 -0.002603156211 -0.01292922866)
(0.007172214946 -0.001412756991 -0.009196268799)
(0.02651850499 -0.002385179087 -0.01870730895)
(0.02235011976 0.0008852686521 -0.01747319954)
(0.02569980035 -0.0003515728958 -0.01264276251)
(0.09646274762 0.005170594526 -0.009105122014)
(0.09963983926 0.0005672533213 0.005057843408)
(0.07087789393 -0.01034914553 -0.006221922164)
(0.063445433 -0.01315370159 0.007758367669)
(0.01967927287 0.0009963174432 -0.002270941953)
(0.01990462037 0.001163432935 0.004554007552)
(-0.02543936273 -0.006893666332 -0.01163307189)
(-0.03412495895 -0.01148845306 -0.00687168778)
(-0.07392687947 -0.01350993277 -0.01254672707)
(-0.06583783278 -0.01350071288 -0.007397310552)
(-0.08235303268 -0.01443701673 -0.01658665846)
(-0.05414375263 -0.002802867732 -0.01339496193)
(-0.06364067885 0.003543576715 -0.01891133028)
(-0.02854207093 0.006575096825 -0.01896813106)
(-0.03004531773 -4.863293373e-05 -0.0156964676)
(0.004962973669 -0.005806968127 -0.01319277711)
(0.007329505067 -0.007444975405 -0.01089625255)
(0.02815516133 -0.005493595344 -0.01932016854)
(0.0238332681 -0.001274796411 -0.01628454962)
(0.02522442997 0.0002434175372 -0.01133479331)
(0.09837745614 0.006289257806 -0.003628477522)
(0.09334566915 -0.003186519996 0.01205178586)
(0.06520288008 -0.006007642211 -0.003486172351)
(0.06678277692 -0.01328825825 0.005934671602)
(0.02463323735 0.001905992006 -0.0052812789)
(0.01629375219 -0.002777525128 0.004143051181)
(-0.03070229563 -0.006359487751 -0.01122348413)
(-0.03711911438 -0.0163687688 -0.003318804234)
(-0.07429845359 -0.0121479965 -0.01209842082)
(-0.06601806227 -0.01452845953 -0.005362521857)
(-0.07829563526 -0.01152117773 -0.02265050047)
(-0.04741455594 -0.00694674608 -0.01746392046)
(-0.05991554928 0.0007905476783 -0.0232437063)
(-0.02864768635 0.001116452572 -0.01607699725)
(-0.03422761974 0.001783873784 -0.01461012387)
(0.002514905862 -0.006555984868 -0.01517919007)
(0.007430150113 -0.005408009125 -0.01399117418)
(0.03086288913 -0.007956599579 -0.01884891298)
(0.02652165162 -0.001017630627 -0.01262902217)
(0.02606441172 -0.002102994026 -0.008336782581)
(0.09884403409 0.002363003608 -0.0002434584233)
(0.09102363765 -0.0109544289 0.01731762381)
(0.06397543641 -0.003337873163 0.0001863940194)
(0.06885962616 -0.01278614424 0.006030692173)
(0.02720997338 -0.005492082162 -0.006516772435)
(0.01400254965 -0.01217795409 0.003953083574)
(-0.03507342127 -0.01400192795 -0.007800260198)
(-0.03812874123 -0.02262943 -0.001725487971)
(-0.07274848335 -0.01768250023 -0.0116959078)
(-0.06526561463 -0.01408189267 -0.007780797694)
(-0.07710903712 -0.01516648996 -0.02319237378)
(-0.04543696758 -0.01252093002 -0.01908287423)
(-0.05796907616 -0.01257139288 -0.02264337117)
(-0.02786009807 -0.007989126762 -0.01512865678)
(-0.03544560166 -0.003996835004 -0.01486171824)
(-0.0001053326831 -0.006350016851 -0.01933909897)
(0.006346507291 -0.006325403032 -0.01667607547)
(0.03125530622 -0.008230441837 -0.01665168453)
(0.02813383177 -0.003999419509 -0.00644405103)
(0.02694222041 -0.002960389418 -0.004018702276)
(0.09237678648 0.001065822076 -0.002102479143)
(0.08929831921 -0.01846340888 0.01575456753)
(0.06411991796 0.0009242889266 0.0008412068507)
(0.06508450714 -0.01463920903 0.007763265347)
(0.02520343151 -0.008624309978 -0.008251227993)
(0.01020467295 -0.02140767674 0.005286053755)
(-0.03810941507 -0.014879835 -0.00700991869)
(-0.03962877796 -0.02673750911 -0.0002048210855)
(-0.06838121029 -0.01591462297 -0.02048131758)
(-0.06410032087 -0.01411432334 -0.01008024381)
(-0.07731795049 -0.01154666759 -0.03146201677)
(-0.04553895237 -0.01548770427 -0.01464446514)
(-0.0567600902 -0.014403135 -0.02539556139)
(-0.02258991235 -0.01392574073 -0.01462490883)
(-0.03305699786 -0.003732706962 -0.0194472774)
(0.0008986791575 -0.007481734049 -0.02341925779)
(0.006117882832 -0.002777184842 -0.01873972605)
(0.03250465432 -0.008332198941 -0.01239183612)
(0.03045770405 -0.003222873253 0.0009311740339)
(0.03041857679 -0.005146992505 0.0008534576817)
(0.08644381075 0.002126320637 -0.007140955742)
(0.09092269657 -0.01926384654 0.009208829972)
(0.06682458586 -0.001338783827 -0.001292509249)
(0.06190087787 -0.02164321875 0.0096392377)
(0.02260554667 -0.01622750081 -0.006786501391)
(0.009490281467 -0.03221622202 0.006353202444)
(-0.03887632651 -0.02033551711 -0.003270892863)
(-0.03875868179 -0.03145274759 -0.001229142153)
(-0.06397234758 -0.02195532393 -0.0214603319)
(-0.06202139083 -0.02217176969 -0.01449851537)
(-0.07818094395 -0.01703150025 -0.02772547781)
(-0.04744157089 -0.01638738574 -0.01126074358)
(-0.05689915173 -0.01372391426 -0.02118209356)
(-0.02035871358 -0.01456449779 -0.01555894603)
(-0.03086934998 -0.007214453917 -0.02013666214)
(0.0005637521737 -0.009097431189 -0.02460391652)
(0.005768436704 -0.002807807598 -0.0169143717)
(0.03093891789 -0.006822968058 -0.007717736946)
(0.03058160826 -0.003652990086 0.006719692109)
(0.03228015111 -0.004784896462 0.003844433814)
(0.08002916836 0.008904133984 -0.01063455454)
(0.08690172604 -0.01525066791 0.004066700503)
(0.06267402427 -0.001985388205 -0.004050506964)
(0.05432490458 -0.02876693912 0.01165751361)
(0.01792522245 -0.01703262684 -0.004847452278)
(0.007223821677 -0.03900600801 0.008276562392)
(-0.03762085553 -0.01810907702 -0.005234815087)
(-0.04064232041 -0.03225310997 0.0006901877455)
(-0.06196189852 -0.02133861585 -0.02658518973)
(-0.0604579227 -0.03240112625 -0.01229856259)
(-0.07332791103 -0.02143466329 -0.04240919572)
(-0.04322949136 -0.01574080452 -0.009479812748)
(-0.05550242013 -0.002523983453 -0.02695205024)
(-0.01806256841 -0.01064984485 -0.0145892279)
(-0.02917472355 -0.003130494588 -0.02075377281)
(0.003985856604 -0.008935670785 -0.02048049203)
(0.007745846651 0.002212349499 -0.01359712529)
(0.03190921824 -0.005207547604 -0.004979551478)
(0.03206945137 5.890469055e-05 0.006667750797)
(0.03582898123 -0.005468551045 0.003128738538)
(0.08166234955 0.01342785685 -0.0104111286)
(0.08346059501 -0.01558068551 0.003068033123)
(0.05761466588 -0.006654718536 -0.003893376142)
(0.05101869156 -0.03700843612 0.0137091296)
(0.01562313778 -0.01999361633 0.0004403033707)
(0.008659490038 -0.04531535334 0.008461135145)
(-0.03420353899 -0.02047362421 -0.00396097361)
(-0.04086146284 -0.03470177519 0.0005894040027)
(-0.0642433253 -0.02033637399 -0.01658062756)
(-0.06189383601 -0.03856311914 -0.01306069085)
(-0.06649226606 -0.0191717353 -0.03996157078)
(-0.03421408489 -0.01783637377 -0.01640467646)
(-0.05326987772 0.003418612225 -0.0255538122)
(-0.02088854772 -0.008049613664 -0.01497750369)
(-0.02961231228 -0.0006212231946 -0.01459117881)
(0.004301867725 -0.006483717567 -0.01354988454)
(0.008407678593 0.004934366879 -0.007645890243)
(0.02943726286 -0.002721010788 -0.005457308655)
(0.03054550305 0.001882733051 0.001599815993)
(0.0356135447 -0.004799827666 -0.001482932575)
(0.07812803058 0.01356952243 -0.007476427424)
(0.07310734185 -0.02121806962 0.005311087606)
(0.04787038437 -0.007947046315 -0.002060905986)
(0.04463432416 -0.03939569608 0.01527776664)
(0.01233813488 -0.01714955531 0.002230535876)
(0.006821361117 -0.04587723083 0.008891682532)
(-0.03022501452 -0.01878807535 -0.007350627249)
(-0.04031746181 -0.03536976749 0.00427073613)
(-0.06488940642 -0.01150807218 -0.01270453388)
(-0.05954865492 -0.03432585415 -0.002635181051)
(-0.05872634881 -0.006131913328 -0.04290168748)
(-0.02736235417 -0.02047092933 -0.01762201595)
(-0.04852323104 0.00647303111 -0.03080525294)
(-0.02102682172 -0.007741066786 -0.0131479307)
(-0.0280147806 0.007578156064 -0.01206233641)
(0.007900282644 -0.001541265711 -0.006573038761)
(0.01039579739 0.0115747242 -0.004503179335)
(0.029789677 -0.0008089563287 -0.007984999374)
(0.03073939819 0.005893276605 -0.006260777831)
(0.03744630769 -0.005387563404 -0.006939441985)
(0.07577425806 0.01119954568 -0.005397941556)
(0.06869141332 -0.03142186073 0.007939512698)
(0.04515061104 -0.007574885214 0.0001721186403)
(0.04421808572 -0.04133776079 0.01511002273)
(0.01134582894 -0.01639607011 0.003758193181)
(0.007406691263 -0.04932417075 0.008249628668)
(-0.0268929425 -0.02282086967 -0.005027561102)
(-0.0354643448 -0.0425668276 0.00359705009)
(-0.06369392229 -0.009417382986 -0.001745502645)
(-0.05809151995 -0.03024867378 0.0003671101171)
(-0.05673388743 -0.001711514861 -0.02499315395)
(-0.02534316452 -0.0255836991 -0.0175095434)
(-0.04420265199 -0.0008929285795 -0.02314907404)
(-0.02023218384 -0.01140752471 -0.0134232987)
(-0.02517708751 0.01110907346 -0.008792652301)
(0.00711385887 0.002038274983 -0.004488873032)
(0.008883928592 0.01356353685 -0.002535460478)
(0.02545422832 0.000558003498 -0.01003224333)
(0.02741368218 0.007204017742 -0.0104572403)
(0.03486851821 -0.003993280262 -0.009898772203)
(0.06323830407 0.01024581781 -0.004759276721)
(0.06028630304 -0.03480104005 0.008807119048)
(0.04123735782 -0.002885823192 -0.0001621141815)
(0.03811814534 -0.03937975038 0.01206850835)
(0.006979607221 -0.01345078361 0.001098906976)
(0.002216423382 -0.0489914272 0.009111616905)
(-0.02557969432 -0.02249722598 -0.005838985048)
(-0.03053823469 -0.04580731625 0.003744812415)
(-0.05640484929 -0.005788644608 -0.00537006352)
(-0.05407244308 -0.02334484794 0.005171859952)
(-0.05543732195 0.0100734555 -0.01928033978)
(-0.02681640025 -0.02190791714 -0.008140347986)
(-0.03841585515 0.002224061636 -0.02028389999)
(-0.01271013816 -0.009997968271 -0.01205396633)
(-0.0184658927 0.01706056776 -0.01235187709)