/*--------------------------------*- C++ -*----------------------------------*\
| =========                 |                                                 |
| \\      /  F ield         | OpenFOAM: The Open Source CFD Toolbox           |
|  \\    /   O peration     | Version:  5.x                                   |
|   \\  /    A nd           | Web:      www.OpenFOAM.org                      |
|    \\/     M anipulation  |                                                 |
\*---------------------------------------------------------------------------*/
FoamFile
{
    version     2.0;
    format      ascii;
    class       volScalarField;
    location    "10";
    object      p;
}
// * * * * * * * * * * * * * * * * * * * * * * * * * * * * * * * * * * * * * //

dimensions      [1 -1 -2 0 0 0 0];

internalField   nonuniform List<scalar> 
30538
(
101302.5287
101307.3662
101306.8994
101307.8226
101314.1134
101318.4974
101320.2992
101319.1828
101316.5514
101310.0012
101303.8659
101299.4356
101295.8108
101290.3344
101285.5085
101285.6322
101290.4219
101294.1679
101295.6853
101298.5917
101301.9469
101304.1824
101306.0975
101307.6969
101312.7129
101316.3563
101318.5117
101318.0581
101316.6386
101311.8832
101305.9386
101299.2703
101293.9097
101289.2526
101286.3143
101286.6652
101290.2388
101293.9004
101296.2812
101298.8057
101301.2605
101300.1646
101305.0461
101307.5869
101311.0131
101313.7888
101316.4401
101316.5069
101315.9659
101313.3445
101308.0876
101299.4189
101292.108
101288.3204
101287.2204
101287.5221
101289.6074
101293.293
101296.8359
101299.2243
101300.4766
101297.5326
101303.9391
101306.9376
101309.0381
101311.1043
101314.5898
101315.3478
101314.9155
101313.2784
101309.0315
101299.7261
101291.4863
101288.4412
101288.6568
101288.5195
101289.0107
101292.2099
101296.398
101299.2279
101299.7653
101297.1668
101302.6024
101305.2417
101306.9211
101308.5117
101312.9797
101314.5706
101313.5632
101311.2812
101307.7521
101299.815
101292.458
101289.8878
101290.715
101290.3697
101290.1985
101292.265
101295.6535
101298.938
101299.3362
101298.3868
101300.5557
101301.753
101303.7183
101305.3698
101310.5911
101313.5943
101312.039
101308.1091
101304.3184
101299.2558
101294.3921
101292.1559
101293.0499
101293.7815
101293.7871
101293.9968
101295.0924
101298.3619
101299.1555
101299.4082
101297.2076
101297.0087
101299.8086
101301.8428
101307.0266
101311.201
101310.2504
101304.5707
101300.1494
101298.2516
101296.5565
101294.5415
101295.085
101297.3219
101298.3474
101297.0502
101295.6981
101298.0037
101299.0764
101298.9767
101293.7261
101292.4863
101295.8788
101298.5641
101302.5529
101307.2075
101307.6416
101301.1899
101296.6737
101297.3471
101298.4808
101297.1192
101296.8566
101299.3503
101301.3325
101300.092
101298.014
101298.3971
101299.1537
101296.931
101291.74
101289.9103
101293.0631
101296.2752
101298.7275
101302.0094
101303.4482
101297.9986
101294.7759
101296.8188
101300.6558
101300.56
101298.5652
101299.322
101301.6597
101302.4171
101301.631
101300.1274
101299.6363
101295.0591
101292.1459
101289.4469
101291.1764
101294.2987
101295.9687
101296.8526
101297.8517
101295.6057
101294.5845
101296.7512
101301.9768
101304.1375
101301.2703
101298.812
101300.3503
101303.5674
101304.9506
101302.1581
101299.7553
101294.7217
101293.1231
101289.5467
101289.0064
101291.629
101294.0491
101292.5833
101292.4147
101294.3671
101295.7968
101296.717
101301.6716
101305.8589
101304.4098
101300.2987
101300.1196
101303.9891
101306.9086
101303.4004
101300.0563
101294.935
101293.0333
101288.8798
101286.1479
101288.0379
101291.2988
101289.2227
101288.9271
101294.3048
101297.7149
101296.8686
101299.037
101304.0377
101306.9558
101304.8919
101303.1051
101304.6497
101305.6742
101302.3523
101299.4135
101294.3532
101290.8897
101287.6779
101284.4201
101284.9284
101287.7059
101286.5288
101288.0035
101294.2535
101299.0378
101297.9189
101296.0934
101299.8113
101307.4733
101310.6497
101308.4449
101305.4204
101302.0611
101299.6459
101297.6667
101292.4766
101288.0748
101286.8231
101285.6787
101284.3432
101284.3434
101284.4584
101287.6147
101292.5386
101298.6406
101299.8731
101295.7282
101296.5927
101305.9226
101313.662
101313.0051
101306.1262
101298.7194
101297.271
101295.835
101290.3891
101286.6074
101287.2954
101288.9928
101286.2601
101283.0112
101283.8274
101286.5618
101289.5079
101296.5372
101302.1194
101299.3562
101297.0679
101303.5076
101312.1921
101313.4088
101306.3442
101298.5086
101297.1516
101294.7438
101289.4568
101286.9489
101287.757
101290.8713
101288.5677
101284.7935
101285.5668
101286.0879
101286.9919
101293.2315
101302.1898
101304.4719
101301.8487
101302.1508
101306.852
101309.0833
101306.4885
101302.2241
101299.9928
101295.7728
101291.0998
101288.5718
101287.838
101289.5615
101289.7521
101289.0506
101289.667
101288.4939
101287.5786
101290.522
101299.3354
101307.3927
101307.9531
101302.8027
101300.187
101302.4722
101306.6344
101308.1601
101304.4251
101298.3673
101294.3826
101291.201
101288.4058
101287.3126
101289.9376
101294.178
101294.6293
101293.5261
101291.3802
101289.346
101295.4099
101306.5717
101310.099
101304.0148
101296.3163
101297.2398
101306.0303
101312.7387
101307.5371
101300.2393
101297.7929
101294.5491
101290.2217
101288.9039
101291.4952
101297.212
101299.4588
101298.563
101296.5438
101291.6064
101292.9111
101302.3195
101308.5688
101303.8425
101296.0888
101297.0742
101304.2705
101310.1346
101306.9164
101300.3425
101299.7597
101298.8484
101295.701
101294.5379
101298.7783
101298.9188
101299.6854
101301.2244
101296.9748
101297.0946
101297.0411
101298.7093
101304.5306
101302.6208
101297.0091
101299.0177
101302.1238
101303.8634
101302.9922
101303.8081
101308.7238
101308.2155
101308.5447
101313.8979
101317.4116
101319.9051
101319.5505
101317.8043
101312.2626
101306.004
101298.7425
101293.3443
101289.6748
101286.8149
101285.4795
101287.0669
101290.6272
101294.3674
101297.9666
101302.0554
101304.993
101307.8695
101309.8474
101314.278
101317.1534
101319.463
101318.2814
101316.3164
101312.1236
101306.8349
101299.1456
101292.4801
101288.1373
101285.9323
101285.6239
101287.7044
101291.422
101295.0726
101298.2792
101299.3536
101299.6965
101306.1844
101309.9671
101313.958
101316.3163
101318.641
101316.8886
101314.7399
101311.8144
101307.9114
101300.0932
101292.1356
101286.7295
101285.1193
101286.1247
101288.856
101292.2643
101295.4955
101298.431
101297.4059
101295.809
101303.398
101308.0892
101312.311
101314.5184
101317.2377
101316.0812
101313.8453
101311.252
101308.0322
101301.1951
101293.0235
101286.8562
101285.4456
101287.458
101290.3018
101292.7932
101295.0639
101298.1449
101297.5387
101295.6173
101301.0581
101305.0813
101309.6843
101311.86
101315.1612
101315.7188
101313.9482
101310.0327
101306.247
101301.4211
101294.9727
101288.7504
101287.1012
101289.5833
101292.1971
101293.282
101294.2174
101297.6326
101299.6222
101299.1065
101299.789
101301.6633
101306.3179
101308.3976
101311.8364
101314.7461
101313.8168
101308.0631
101302.701
101300.2378
101297.034
101291.9606
101289.8552
101291.9432
101294.1001
101294.2441
101294.1545
101297.3875
101301.8804
101302.502
101298.9351
101298.4707
101302.684
101304.6546
101307.661
101311.7609
101312.5379
101305.6793
101299.1436
101298.5022
101298.9554
101295.8531
101293.1921
101293.8113
101295.5998
101295.895
101295.7807
101298.0339
101302.2131
101302.3782
101297.4639
101295.7566
101299.068
101301.2855
101303.2571
101306.9929
101308.6579
101302.8225
101297.274
101297.7833
101300.5322
101299.6539
101296.3616
101295.1533
101296.5574
101297.9862
101298.949
101299.5529
101300.1865
101298.257
101295.2186
101293.9141
101295.9905
101298.2538
101300.213
101301.5929
101302.6599
101299.733
101297.8152
101298.5377
101301.4863
101302.1539
101299.5204
101296.9521
101297.6933
101299.9749
101302.1069
101301.3571
101297.2978
101292.741
101292.8803
101292.8915
101293.5227
101295.3444
101298.2033
101296.8588
101295.5978
101296.8944
101299.2539
101299.9092
101301.0021
101302.4559
101302.3411
101300.387
101299.9289
101301.4303
101303.6139
101302.0565
101295.684
101289.8235
101292.0022
101292.3744
101290.9711
101291.8209
101296.4515
101293.386
101290.2658
101294.9135
101301.063
101301.004
101299.3846
101300.9173
101304.782
101305.2794
101303.324
101302.2895
101302.9134
101301.3202
101296.2866
101290.6584
101292.087
101291.656
101288.5093
101288.0001
101292.5303
101290.8477
101288.2141
101293.9705
101301.6031
101301.7239
101298.1925
101298.9764
101305.7898
101309.9152
101307.2775
101303.1555
101301.0724
101299.6734
101297.9931
101293.7455
101291.8543
101290.0101
101286.5381
101285.1048
101287.7123
101288.9441
101289.5909
101293.2566
101300.185
101302.2499
101299.2533
101298.5647
101305.1548
101311.5009
101310.1921
101304.7883
101300.4133
101298.7934
101298.8631
101295.714
101290.6781
101287.5717
101286.1963
101284.8639
101284.4875
101287.4367
101291.2923
101292.1239
101296.64
101302.2714
101302.5043
101300.7472
101303.3957
101309.3194
101310.9648
101307.2101
101302.0611
101299.4779
101298.477
101295.4171
101288.8139
101285.6037
101287.2474
101286.7312
101284.5298
101287.0927
101291.223
101290.8577
101293.2043
101301.5929
101306.7716
101304.6528
101302.241
101305.3947
101309.3734
101309.2168
101305.0827
101301.1864
101297.4121
101293.6281
101287.7144
101285.3275
101288.4273
101288.801
101286.6743
101287.4782
101290.184
101291.3039
101292.0988
101299.2944
101307.6513
101307.6003
101303.0549
101302.4965
101306.3484
101309.1458
101307.0796
101302.5008
101297.3338
101293.0389
101288.7998
101287.6133
101289.5165
101289.9101
101288.7401
101288.5202
101291.0828
101294.2541
101293.8361
101296.6365
101304.2403
101308.1608
101305.2143
101301.7556
101303.3994
101307.0367
101306.4227
101302.6371
101298.5257
101294.2766
101292.1271
101292.0276
101290.6259
101290.4418
101290.2026
101290.0836
101293.9505
101298.6463
101297.3652
101295.3467
101298.9357
101305.6849
101306.6326
101302.342
101301.3068
101304.0567
101304.1227
101301.7007
101299.5097
101296.8241
101296.0214
101296.9917
101293.7198
101292.2151
101292.0415
101293.6261
101297.712
101302.6119
101300.0745
101295.736
101295.9293
101302.2429
101305.5183
101302.7689
101300.8025
101301.5031
101301.1352
101300.684
101299.5646
101299.4822
101299.6331
101297.3144
101297.8935
101298.1608
101296.3218
101297.5781
101300.2274
101300.6309
101301.0094
101296.7576
101296.7888
101301.4498
101302.2503
101300.8608
101300.9724
101300.2244
101299.2951
101300.4149
101304.0555
101305.2618
101310.1239
101314.643
101315.7404
101317.3616
101319.5371
101321.3169
101318.8797
101313.9842
101308.2283
101298.4791
101290.4438
101287.1596
101286.5945
101285.3612
101284.135
101285.5264
101290.7642
101296.7039
101302.1459
101305.077
101310.9984
101316.2264
101317.2384
101318.6519
101321.1524
101321.2862
101317.0536
101311.3277
101306.7274
101299.0948
101290.9859
101285.1329
101283.5999
101283.931
101284.8876
101287.1567
101291.7981
101297.0093
101298.9605
101303.5185
101309.0919
101314.6816
101317.0229
101319.5342
101322.6283
101320.9534
101315.3734
101308.687
101305.1879
101300.678
101292.7677
101284.0124
101281.0834
101283.226
101286.8346
101289.7397
101293.0499
101297.1801
101296.6399
101300.9423
101304.9122
101309.8826
101315.1378
101319.509
101322.1813
101319.5983
101314.2175
101307.6883
101304.0128
101302.696
101295.6497
101285.048
101280.633
101284.1008
101289.7537
101292.7181
101293.9801
101297.1108
101297.3753
101300.6105
101300.9515
101304.839
101312.5452
101318.3823
101319.0253
101316.9959
101314.2317
101308.5277
101302.9436
101302.2466
101297.5276
101288.1498
101282.9316
101286.0405
101291.9771
101294.2443
101293.9837
101296.6997
101300.8541
101301.8238
101300.0109
101302.0561
101310.5051
101316.1967
101313.4077
101312.9871
101314.3803
101310.0116
101301.7921
101299.0394
101297.5736
101292.2669
101287.4341
101288.2262
101292.5439
101294.4573
101294.1462
101296.6801
101304.1986
101303.6584
101301.1297
101302.221
101308.8216
101312.8587
101307.4426
101308.2887
101312.8899
101310.6327
101301.6147
101295.8959
101297.1025
101296.7711
101292.7852
101290.2165
101291.7751
101294.1753
101295.7538
101297.893
101303.9808
101302.4566
101302.0219
101303.2371
101306.0535
101307.9894
101303.4845
101304.2228
101308.7744
101308.9082
101302.5171
101295.8779
101298.1213
101301.0582
101297.7136
101292.1391
101291.2971
101294.418
101298.3736
101300.1282
101299.8654
101297.5845
101300.1545
101302.0142
101301.3731
101301.9866
101302.0944
101301.6029
101302.3549
101304.5799
101303.4147
101299.2
101298.9382
101302.3454
101301.1679
101296.0105
101294.122
101296.0491
101300.7383
101302.0551
101294.6408
101291.218
101295.0182
101298.5333
101296.0462
101296.1763
101301.8819
101300.5035
101296.2883
101298.922
101303.3563
101302.9091
101299.5243
101299.6923
101301.9736
101301.5538
101299.8777
101298.9816
101301.4358
101302.1881
101292.862
101288.7178
101291.5024
101295.3444
101292.5686
101291.8889
101300.4239
101299.5253
101293.11
101294.7264
101302.6461
101306.0573
101300.4795
101296.2375
101301.5973
101307.3529
101306.6147
101301.8881
101300.296
101300.379
101294.3779
101290.7612
101291.4112
101293.0111
101291.5726
101289.4111
101294.6241
101296.838
101292.9868
101292.9354
101300.3996
101307.2838
101303.2994
101296.665
101301.1082
101310.3685
101310.5054
101303.5884
101298.8435
101298.3628
101298.0979
101296.2195
101293.039
101291.04
101290.8661
101288.3936
101287.2104
101293.0594
101295.746
101293.6052
101297.4837
101306.1309
101307.3059
101301.7434
101301.6714
101309.1079
101310.5464
101305.0499
101300.2487
101298.6622
101300.5541
101299.4132
101293.9349
101288.0911
101288.7632
101287.8691
101283.992
101290.6706
101298.3521
101294.9107
101294.1961
101302.6672
101310.4815
101308.8266
101303.3397
101304.6702
101307.603
101307.4446
101304.6332
101301.2596
101300.6972
101299.605
101292.3151
101285.2551
101285.6471
101287.7877
101286.5013
101290.9504
101298.1345
101296.1036
101292.7633
101298.6526
101310.7692
101313.2836
101305.5713
101301.3565
101305.057
101309.6278
101309.2207
101304.0938
101299.4164
101296.3112
101290.0464
101285.7628
101284.7897
101287.5731
101290.765
101292.1641
101295.7104
101297.7416
101294.6962
101296.6017
101306.254
101311.7027
101307.2132
101302.0984
101304.6546
101309.8092
101309.4276
101303.8462
101298.5907
101293.5551
101290.2567
101290.7802
101288.0436
101288.3184
101291.7442
101291.6977
101293.6912
101299.8156
101300.187
101297.6473
101299.5092
101305.1093
101307.5648
101306.1863
101306.1745
101307.0743
101303.7028
101300.5756
101297.6675
101292.7817
101294.0697
101297.4426
101293.6696
101290.2968
101289.7438
101289.5263
101292.4282
101301.6419
101307.584
101301.1514
101294.0976
101298.4271
101306.234
101309.2415
101307.4294
101302.969
101296.6861
101296.6052
101297.3356
101294.4612
101298.0448
101303.9601
101299.1476
101293.4011
101289.0563
101289.8633
101293.5901
101303.2294
101309.8046
101304.6249
101294.3365
101294.5027
101303.3101
101308.8996
101305.9862
101300.2514
101294.249
101295.1538
101297.8893
101298.7201
101300.599
101300.4679
101301.5991
101297.0565
101294.3867
101296.5177
101297.4894
101302.9436
101305.1461
101299.7115
101297.7688
101296.9187
101300.116
101304.623
101302.9486
101299.2154
101296.3615
101297.7068
101298.1835
101298.4666
101311.6774
101321.2059
101323.1683
101323.6168
101320.2844
101321.9678
101321.6398
101317.2487
101308.953
101297.3738
101287.8858
101280.3582
101277.9838
101281.2931
101284.6178
101285.3644
101289.2715
101296.2264
101299.665
101306.1031
101312.6768
101321.1901
101322.8014
101321.8927
101323.0439
101324.8663
101320.8047
101312.2177
101304.6233
101297.252
101290.2166
101282.465
101279.426
101281.213
101283.5427
101284.1808
101288.425
101295.7728
101300.7759
101314.464
101312.2884
101318.6787
101320.1412
101320.1638
101326.5404
101327.1896
101319.4779
101307.6015
101300.5609
101297.7822
101293.2527
101285.3383
101281.1964
101281.247
101283.2597
101284.6686
101289.3317
101295.8522
101300.7784
101318.0537
101310.5752
101313.24
101316.3168
101320.3514
101327.6819
101326.0576
101317.5265
101305.8865
101298.9675
101297.9534
101294.8562
101287.7617
101282.7547
101281.4131
101284.4063
101287.7804
101292.5413
101297.0754
101300.5692
101314.7079
101306.0006
101307.5416
101313.48
101322.475
101324.5406
101320.1828
101315.6157
101308.747
101301.544
101297.1311
101294.318
101289.702
101284.8951
101282.0297
101285.758
101290.8807
101295.4812
101297.8944
101299.6637
101305.4425
101301.7575
101304.6196
101313.6781
101325.3721
101317.3978
101309.8566
101311.6468
101313.6551
101307.2609
101296.3601
101291.1859
101291.031
101287.9733
101283.7525
101286.441
101292.4188
101296.7843
101298.1557
101299.088
101296.8153
101301.8712
101307.6883
101315.6611
101325.2699
101311.2307
101301.2519
101306.1718
101316.9093
101313.601
101294.6048
101286.8686
101292.344
101293.6525
101287.4785
101286.84
101292.0077
101296.7705
101298.8093
101298.0405
101292.7053
101304.0132
101312.2887
101314.7938
101318.7558
101307.5264
101297.8378
101302.0817
101317.374
101316.7801
101293.5429
101286.246
101295.6703
101300.3848
101292.5853
101287.861
101291.0215
101296.2641
101299.4799
101296.3208
101294.0069
101303.6301
101311.0748
101308.2525
101307.7103
101306.2916
101300.6213
101300.9179
101311.9492
101313.999
101297.9801
101290.0245
101298.4811
101304.2754
101298.0738
101292.1127
101292.16
101296.7036
101300.4444
101295.0633
101296.8258
101298.4691
101303.7716
101298.6036
101297.4751
101305.7032
101305.7433
101301.7102
101302.4019
101306.6318
101303.2005
101295.9498
101297.974
101302.554
101301.8852
101298.5442
101296.3183
101298.0647
101301.4421
101296.5993
101299.7577
101291.9608
101295.5164
101294.0846
101293.0594
101301.9873
101308.0913
101304.5755
101296.9307
101298.7637
101306.6922
101303.1799
101296.9324
101298.4906
101303.2329
101305.2416
101301.8829
101300.0676
101301.373
101297.4096
101301.1898
101289.3401
101289.7007
101295.6058
101294.706
101294.1394
101303.9739
101307.0777
101296.2567
101292.8487
101306.9198
101310.8425
101300.4159
101296.2389
101302.4508
101308.4633
101306.3484
101302.3837
101301.1525
101299.2766
101301.781
101291.4155
101287.7139
101298.112
101298.0897
101285.6768
101294.6471
101306.8338
101300.0922
101291.8901
101302.4671
101315.0569
101309.7166
101299.9796
101300.689
101307.1182
101308.2262
101305.4902
101301.9046
101300.0076
101301.0328
101294.0452
101287.5465
101294.7947
101296.8397
101283.7415
101288.3793
101304.4899
101305.8219
101294.411
101294.5004
101313.1706
101319.7367
101307.9947
101300.4088
101303.0514
101307.5585
101308.0989
101303.282
101299.6479
101299.6166
101294.4576
101287.9309
101286.2016
101291.4436
101289.3483
101290.5817
101303.2291
101309.1965
101298.4526
101289.3679
101305.4214
101322.3575
101314.4696
101302.6292
101301.1354
101305.9995
101308.7721
101304.1959
101299.7243
101295.7869
101293.0019
101291.6283
101281.0466
101285.4707
101296.665
101298.2499
101301.5428
101306.9795
101302.7371
101292.3658
101296.9242
101313.5097
101315.0657
101307.1296
101303.6878
101304.9805
101305.7155
101302.5243
101299.1584
101292.5744
101293.1957
101299.1285
101284.3783
101283.4776
101298.7634
101302.5329
101296.8409
101299.66
101306.8423
101302.8912
101294.329
101297.8621
101308.8296
101313.8658
101310.097
101303.9265
101299.2943
101298.589
101294.9088
101290.7994
101297.073
101303.4267
101293.2582
101286.9644
101296.0435
101300.2761
101289.0962
101290.3774
101311.4743
101315.6108
101297.1441
101286.9722
101300.475
101316.9536
101315.639
101303.0484
101293.0791
101294.6517
101292.5493
101292.1524
101300.4074
101306.3428
101301.3356
101292.4837
101293.2558
101296.8094
101285.6804
101287.1079
101311.3504
101323.535
101302.3708
101284.5198
101295.6876
101313.8578
101313.5027
101302.6639
101293.6072
101293.8991
101294.8863
101297.3121
101301.5496
101303.754
101303.0576
101296.0461
101296.0808
101297.8137
101293.9619
101299.0602
101304.8923
101307.9312
101303.8549
101292.1455
101295.2025
101306.8203
101306.5041
101300.7206
101297.2426
101297.4434
101295.4969
101292.932
101314.9116
101324.2392
101329.9436
101339.1611
101323.2359
101318.1233
101317.1666
101313.8804
101308.1723
101297.1215
101278.8664
101264.0825
101263.0808
101273.4753
101286.5018
101289.1891
101290.7953
101297.4703
101299.7923
101307.1655
101311.3204
101320.4808
101328.9621
101332.3895
101322.6438
101322.9941
101324.3373
101316.8774
101304.1338
101296.7536
101288.0413
101277.7167
101273.3294
101275.3831
101280.4166
101282.613
101286.9749
101296.2871
101306.1486
101325.247
101312.1707
101320.2079
101325.2111
101323.4184
101325.3115
101329.7673
101328.0843
101316.7338
101296.1584
101293.3437
101295.0021
101291.5857
101284.0285
101277.5984
101275.4168
101277.5717
101285.4138
101296.4781
101310.1767
101335.594
101317.7145
101323.1081
101318.9359
101316.7197
101332.2021
101334.283
101322.4417
101309.8472
101290.7312
101283.7795
101292.9763
101299.0865
101291.1083
101279.1941
101272.9053
101277.1
101288.7109
101299.0392
101307.8221
101326.415
101317.5584
101322.1567
101313.3666
101316.7896
101331.3182
101328.8611
101311.2542
101306.9196
101298.2975
101280.4867
101286.8023
101295.2879
101290.7365
101281.3599
101274.8954
101280.5461
101292.945
101301.0171
101299.8859
101300.7444
101309.367
101317.6571
101311.9349
101323.7115
101326.9897
101316.0437
101300.3544
101306.7675
101315.4142
101296.5652
101282.2959
101282.2949
101285.6235
101283.8503
101280.3131
101285.5681
101295.1909
101300.7748
101291.0243
101278.685
101303.1358
101316.8347
101314.847
101329.2816
101324.8425
101306.9392
101294.446
101307.646
101330.591
101308.5914
101279.2653
101273.3305
101285.7893
101289.189
101286.3558
101288.7296
101294.5819
101298.9919
101289.8028
101275.2636
101303.1217
101318.4477
101316.9184
101325.7184
101323.0253
101303.8028
101292.8777
101310.146
101326.4435
101314.1594
101281.7739
101276.1733
101293.1884
101297.5893
101291.2868
101290.0167
101292.4295
101297.0033
101295.3463
101292.9949
101305.2594
101315.9994
101312.2917
101313.5218
101317.7421
101307.9588
101300.6815
101310.352
101321.8323
101308.4983
101288.081
101286.2084
101297.8698
101302.2891
101294.5439
101291.775
101292.7848
101297.1887
101303.6511
101313.8125
101305.4472
101307.8564
101303.0554
101302.4371
101309.8138
101312.6466
101311.9958
101310.8822
101307.7236
101303.9608
101297.4534
101295.7531
101298.6017
101300.3436
101295.334
101294.917
101296.4782
101300.5048
101308.8952
101320.3965
101297.9319
101297.0956
101298.8794
101299.5668
101301.2757
101310.4713
101317.0552
101307.6831
101295.3755
101299.0537
101305.1267
101305.1886
101300.1295
101296.3229
101295.5641
101299.3069
101302.2405
101304.5513
101304.4065
101311.9555
101290.0506
101289.8604
101301.7332
101304.9118
101294.6808
101301.5477
101314.1052
101305.9913
101292.1356
101295.4179
101308.1606
101312.8174
101304.5068
101295.1536
101296.0785
101303.1999
101307.185
101307.7928
101296.2344
101296.9433
101288.5844
101289.2017
101306.265
101310.2208
101291.6552
101291.5238
101305.8175
101309.383
101298.3971
101292.6507
101306.779
101318.9099
101311.7494
101298.0095
101297.46
101305.1031
101309.4096
101308.2162
101292.9231
101288.7989
101291.4782
101293.4555
101302.9669
101306.1516
101293.9727
101288.5183
101299.6257
101315.1465
101308.8992
101292.4808
101301.2085
101319.4996
101317.5388
101303.4174
101299.6012
101304.1945
101308.0379
101305.7265
101296.0372
101291.2046
101294.8775
101298.6495
101292.4681
101294.8021
101296.0162
101293.4137
101301.5923
101318.3876
101314.365
101294.7309
101295.2924
101314.5385
101318.2004
101308.7312
101303.2008
101302.3795
101304.2295
101302.9932
101302.1388
101299.2762
101298.7416
101301.2604
101284.5664
101285.8877
101297.774
101303.5175
101308.2053
101313.0669
101311.9075
101301.2879
101295.0127
101304.6944
101312.5672
101312.3881
101308.1915
101301.451
101300.3452
101300.5196
101304.7898
101301.5675
101299.8983
101301.3728
101284.8017
101285.0444
101299.1455
101309.6475
101306.6591
101299
101304.5485
101311.2717
101301.9706
101295.4286
101303.2136
101314.7502
101313.398
101302.0728
101297.317
101298.2007
101296.7021
101297.5683
101300.3246
101295.6759
101290.961
101292.0496
101303.2788
101310.0352
101295.7885
101282.4812
101297.4118
101319.23
101311.5878
101292.0396
101295.4421
101315.095
101316.532
101303.4603
101295.9183
101297.0342
101290.2329
101293.7384
101299.8287
101289.2581
101296.3896
101299.5599
101304.2713
101303.9436
101285.1346
101275.5524
101297.1881
101322.8621
101316.3253
101293.3992
101293.4198
101310.7938
101313.5792
101304.6484
101298.559
101297.515
101292.6362
101297.7072
101300.1556
101300.2134
101300.975
101297.374
101301.3157
101300.1012
101292.5051
101294.0169
101299.7997
101310.5152
101309.6349
101296.4411
101295.9204
101304.5815
101306.0637
101302.5719
101300.3685
101298.8839
101292.4328
101308.368
101325.988
101337.05
101315.9372
101347.9246
101352.4946
101303.259
101281.5732
101317.3274
101327.2358
101280.3375
101252.358
101270.7255
101280.9873
101259.0169
101262.9008
101281.258
101294.1455
101301.3035
101293.4053
101312.4338
101305.5583
101318.2496
101332.6314
101347.2348
101327.874
101315.4983
101316.0459
101322.4727
101313.3694
101287.5803
101269.4311
101270.7485
101274.5847
101269.3751
101269.8179
101278.6907
101288.4667
101298.3779
101301.7473
101325.2425
101298.351
101314.8476
101342.1731
101335.5569
101311.0208
101335.2229
101344.6949
101316.4704
101294.7075
101296.1442
101290.3567
101273.7755
101269.4483
101277.5299
101274.5767
101275.3925
101283.5382
101297.4341
101311.7715
101338.7664
101312.2186
101332.094
101335.4312
101313.9574
101315.0175
101354.4451
101350.7346
101292.3331
101268.9412
101302.6288
101307.0044
101278.7012
101267.9017
101279.9207
101274.2697
101271.9599
101282.334
101298.3787
101310.5176
101331.6489
101323.342
101345.5177
101320.9529
101300.1212
101324.8876
101360.4549
101340.7108
101276.4385
101254.5293
101302.0704
101310.2128
101279.278
101267.2817
101281.2372
101274.8431
101271.7086
101283.5262
101299.1766
101296.8611
101304.2397
101320.2811
101341.6399
101312.3916
101304.2457
101335.8199
101353.4911
101321.5796
101273.9961
101269.3445
101304.0132
101308.4532
101273.1708
101261.1514
101283.1882
101279.6312
101276.6954
101285.7743
101298.9394
101282.5093
101277.5334
101306.9574
101328.0175
101311.5274
101315.81
101341.7937
101348.2992
101304.2719
101266.0119
101319.7991
101331.1721
101306.9376
101258.7961
101252.9389
101288.0944
101289.8144
101284.456
101287.3316
101296.601
101280.7302
101276.8692
101298.5621
101315.4526
101311.9935
101319.9342
101339.2639
101346.8243
101302.9037
101291.8866
101304.0395
101339.3721
101307.6364
101246.6416
101252.1484
101298.072
101300.6373
101291.5269
101288.2834
101293.2656
101293.303
101305.5576
101301.5673
101310.0338
101310.9549
101314.3269
101327.5074
101338.779
101312.6452
101297.8981
101298.8728
101318.492
101307.537
101255.1042
101260.5075
101306.0569
101305.6182
101295.9372
101290.5283
101292.7057
101310.0972
101333.7973
101310.1332
101309.7462
101307.5472
101306.5789
101312.0935
101326.2382
101322.847
101305.8302
101303.46
101306.7593
101310.7813
101278.8141
101274.7251
101305.3521
101301.6058
101296.7136
101294.9203
101296.6767
101316.2708
101334.2716
101309.7001
101308.774
101303.8507
101302.8235
101304.3295
101319.826
101325.9495
101303.1893
101290.3083
101303.1534
101316.3537
101302.4072
101291.7851
101298.9053
101292.6777
101295.3951
101300.2544
101303.4591
101304.83
101308.6432
101298.1036
101307.644
101303.036
101304.9767
101308.358
101317.6493
101314.6533
101294.1545
101293.5468
101307.2929
101314.248
101315.0916
101306.4989
101296.8168
101286.0038
101293.7202
101304.4967
101309.7161
101285.0222
101277.1412
101288.7332
101309.1661
101303.5771
101304.3042
101316.4395
101313.821
101296.1041
101293.7145
101311.5032
101313.7168
101302.0263
101311.4202
101316.3064
101301.3286
101286.0225
101293.4456
101305.6145
101311.5419
101280.1652
101265.4768
101286.1983
101313.6584
101302.8552
101297.6675
101317.7281
101308.2479
101281.5409
101303.0287
101335.5196
101313.8404
101280.5978
101296.787
101323.1222
101310.9316
101292.9717
101294.4362
101303.3452
101308.61
101291.1527
101279.7084
101290.5766
101317.6978
101301.0822
101291.3985
101306.402
101297.7204
101280.6561
101313.9658
101343.9089
101310.3222
101273.0174
101287.3785
101320.5698
101316.9697
101302.1257
101296.4828
101300.0943
101304.4699
101305.2273
101310.0979
101302.0665
101309.5452
101299.4339
101295.5708
101291.8471
101291.7157
101299.5252
101320.3583
101326.3081
101306.4515
101287.8204
101294.4058
101312.0703
101315.8262
101308.9872
101299.8683
101298.8002
101301.8938
101310.8726
101324.3974
101307.6815
101289.8791
101296.5703
101306.1211
101287.7132
101295.5743
101316.1753
101312.52
101297.6774
101306.5623
101315.5062
101309.0028
101301.1466
101307.2689
101311.8008
101304.6848
101301.061
101301.6858
101302.8727
101317.003
101301.3854
101271.977
101290.9432
101315.2381
101300.5509
101305.2719
101322.3844
101296.6806
101269.4322
101301.0962
101340.0922
101321.6237
101289.691
101295.7353
101311.1735
101309.6505
101305.5309
101302.9967
101294.4795
101304.6786
101295.2651
101256.0306
101285.1116
101316.5279
101311.3456
101304.8086
101311.3318
101283.8858
101263.7394
101298.5458
101340.2425
101324.7377
101288.0402
101288.7035
101307.0369
101310.1674
101307.3018
101303.4749
101295.2743
101300.9698
101294.5942
101288.6638
101295.6261
101300.5068
101304.2218
101302.7611
101301.5056
101290.0938
101287.2851
101305.2895
101318.1891
101309.7898
101295.7967
101292.094
101300.113
101305.3637
101305.0456
101301.2611
101306.9115
101331.1728
101346.7631
101367.6697
101283.6987
101308.0241
101378.5055
101353.2746
101305.6278
101291.7501
101281.115
101287.5473
101290.0442
101283.7038
101272.4954
101251.5991
101236.5239
101262.6805
101289.7841
101302.4078
101297.3491
101309.039
101313.3867
101325.2427
101333.4865
101344.2026
101344.0982
101320.9655
101300.6852
101307.3748
101297.3187
101280.1788
101272.3155
101273.0189
101270.8822
101262.3149
101256.7371
101270.0997
101285.1543
101299.792
101294.7112
101301.177
101294.5288
101302.7302
101364.7617
101359.3974
101308.955
101298.4532
101290.6737
101320.0033
101319.2495
101270.1684
101250.8809