/*--------------------------------*- C++ -*----------------------------------*\
| =========                 |                                                 |
| \\      /  F ield         | OpenFOAM: The Open Source CFD Toolbox           |
|  \\    /   O peration     | Version:  5.x                                   |
|   \\  /    A nd           | Web:      www.OpenFOAM.org                      |
|    \\/     M anipulation  |                                                 |
\*---------------------------------------------------------------------------*/
FoamFile
{
    version     2.0;
    format      ascii;
    class       volScalarField;
    location    "10";
    object      rho;
}
// * * * * * * * * * * * * * * * * * * * * * * * * * * * * * * * * * * * * * //

dimensions      [1 -3 0 0 0 0 0];

internalField   nonuniform List<scalar> 
30538
(
1.259008902
1.289239561
1.289797346
1.28981409
1.289870158
1.28990569
1.289916935
1.289902144
1.289874778
1.289812333
1.28975554
1.289713072
1.28967773
1.289624017
1.289576977
1.289576011
1.289618735
1.28965379
1.289795777
1.298400844
1.258921743
1.289246723
1.289823224
1.289845862
1.289890299
1.289919063
1.289933666
1.289925248
1.289909338
1.289863736
1.289809275
1.289746636
1.289695921
1.289649988
1.289620217
1.28962122
1.289652636
1.289686635
1.289835078
1.29832229
1.259440861
1.289226698
1.289812484
1.289842759
1.289872673
1.289893558
1.28991329
1.289910274
1.28990295
1.28987815
1.289830622
1.289750373
1.289682411
1.28964504
1.289632205
1.289632614
1.289649921
1.289683485
1.289838058
1.298580067
1.259190415
1.289208267
1.289800269
1.289833882
1.289851403
1.28986641
1.289894491
1.289898698
1.289893482
1.289879217
1.28984185
1.289756589
1.289680185
1.289650305
1.289649719
1.289645994
1.289647917
1.289676274
1.2898297
1.298271349
1.260416004
1.289238467
1.28978593
1.289814992
1.289828781
1.289839767
1.289877829
1.289890556
1.289882215
1.289863096
1.289833306
1.28976114
1.289693074
1.289667432
1.289672591
1.289666838
1.289662149
1.28967924
1.289819619
1.298854045
1.260178997
1.289259604
1.289764953
1.28977989
1.289795993
1.289808058
1.289853893
1.289881676
1.289869455
1.289836328
1.289805244
1.289759424
1.289714131
1.289691914
1.28969698
1.28970084
1.289697308
1.289696874
1.289808933
1.298279687
1.262231151
1.289317154
1.2897326
1.289733341
1.289756943
1.289773167
1.289819895
1.289859963
1.289854521
1.289806245
1.289770144
1.289752928
1.289736397
1.289715967
1.28971773
1.289734621
1.289740163
1.289725537
1.289809202
1.299040658
1.261974117
1.289324598
1.289698803
1.289689227
1.28971833
1.289741159
1.28977817
1.289823962
1.289832055
1.289777409
1.289740547
1.2897463
1.28975512
1.289740197
1.289734414
1.28975312
1.289767355
1.289753188
1.28982417
1.298145813
1.264834854
1.289365593
1.289679517
1.289663578
1.28969076
1.289718958
1.289742956
1.289777292
1.289795211
1.289749675
1.289724168
1.289741754
1.289774642
1.289770563
1.289748827
1.289751691
1.28976923
1.289773303
1.289851056
1.298945941
1.264501176
1.289361706
1.289682091
1.289658093
1.289672598
1.289700462
1.289717971
1.289731077
1.289745117
1.289728351
1.289721992
1.289739852
1.289784574
1.289800345
1.289770548
1.289744446
1.289755068
1.289781828
1.289874253
1.297593352
1.268182453
1.289426925
1.289691176
1.289658757
1.289652863
1.2896765
1.289701164
1.289692825
1.289695828
1.289716428
1.28973118
1.289736699
1.289777963
1.289811571
1.289794682
1.289754004
1.28974961
1.28978287
1.289883379
1.29828094
1.267671269
1.289442294
1.289690998
1.289653504
1.289627666
1.289644781
1.289676947
1.289662468
1.28966351
1.2897142
1.289745561
1.289733938
1.289749028
1.289789615
1.289812608
1.28979119
1.289773095
1.289786165
1.289864067
1.296486053
1.272293155
1.28951041
1.28967344
1.289644153
1.289613309
1.289617722
1.289645026
1.289637735
1.289653972
1.289711218
1.28975371
1.289738493
1.289716826
1.289745615
1.289812026
1.28983902
1.289818203
1.289790811
1.289821168
1.297138117
1.271521903
1.289507095
1.289649635
1.289638224
1.289626227
1.289613518
1.289614918
1.289618365
1.289648844
1.289692816
1.289745949
1.289751365
1.289708259
1.289711282
1.289793324
1.289862657
1.289856959
1.289795678
1.289781776
1.294959814
1.277018024
1.289558183
1.289638134
1.289644144
1.289657793
1.289631945
1.289603152
1.289611979
1.289637494
1.289662589
1.289723148
1.289767703
1.289737043
1.289711889
1.289768352
1.28984722
1.289859323
1.289797255
1.289768911
1.295569122
1.275863109
1.289560601
1.289642163
1.289649346
1.289675771
1.289653541
1.289619356
1.289626902
1.289631384
1.289637441
1.289690275
1.289765731
1.289781196
1.289753702
1.289755067
1.289798564
1.289820311
1.289799386
1.289794046
1.293161653
1.28221347
1.289631547
1.289657144
1.289650149
1.289664152
1.289664449
1.289657702
1.289663207
1.289651677
1.289641101
1.289664075
1.289739074
1.289807574
1.289809719
1.289762106
1.28973962
1.289761989
1.289802408
1.289838283
1.293705247
1.280541861
1.289659451
1.289680045
1.289641088
1.289643176
1.289650493
1.289703433
1.2896961
1.289696202
1.28966938
1.289653273
1.289702531
1.28980212
1.289831522
1.289776073
1.289707824
1.289717379
1.289799642
1.289873622
1.29117412
1.287674082
1.288938072
1.289684427
1.288583193
1.289664395
1.288515866
1.289710365
1.288797631
1.289722201
1.289122096
1.289672704
1.289377323
1.289786387
1.289676612
1.289839371
1.28964555
1.289780222
1.289741094
1.289858968
1.29172674
1.328098442
1.236295593
1.319477709
1.229953443
1.308956376
1.229585347
1.302281634
1.235248347
1.300436815
1.245411732
1.302933257
1.257704357
1.30707461
1.26903838
1.310002509
1.276441077
1.30988398
1.278358882
1.306656983
1.275149773
1.253940129
1.289149232
1.289812299
1.289825251
1.289873429
1.289903483
1.28992308
1.289916277
1.289897175
1.28984402
1.289785647
1.289717409
1.289667444
1.28963286
1.289606692
1.289594246
1.289606374
1.289636848
1.289827317
1.300625688
1.253818067
1.289151622
1.289842551
1.28986986
1.289909699
1.289933607
1.289951692
1.289937701
1.289916987
1.289876467
1.289827313
1.289755596
1.289694461
1.289654105
1.2896339
1.289630588
1.289647064
1.289679386
1.289866107
1.300580506
1.254390769
1.289122898
1.289826692
1.289869577
1.289905214
1.289924177
1.289942566
1.289923913
1.289902285
1.289874135
1.289838291
1.289766066
1.289693735
1.289644176
1.289629421
1.289637746
1.289659771
1.28968895
1.289866786
1.300939951
1.254082892
1.2890929
1.289800057
1.289850524
1.289887935
1.289905374
1.289927602
1.289915177
1.289893728
1.289869763
1.289840999
1.289778501
1.28970468
1.28964868
1.289635683
1.289652786
1.289675366
1.289695883
1.289858273
1.300743031
1.255447691
1.289130694
1.289777588
1.289820832
1.289861385
1.289878472
1.289906464
1.289910575
1.289894468
1.28985967
1.289826731
1.289783294
1.28972543
1.28966921
1.289653809
1.289674675
1.28969483
1.289702119
1.289844821
1.301445987
1.255147767
1.289173383
1.28976425
1.28978715
1.289827877
1.289844215
1.289874129
1.289900641
1.28989334
1.28984296
1.28979661
1.289775315
1.289746925
1.289701014
1.289681004
1.289697866
1.28971371
1.289712038
1.289837942
1.301023895
1.257431646
1.289260724
1.289755271
1.289755415
1.289791988
1.289807635
1.289834456
1.289872791
1.289882209
1.289822612
1.289766176
1.289761829
1.289766524
1.289738059
1.289712551
1.289715553
1.289727946
1.28972748
1.289844514
1.301862266
1.257146442
1.289272616
1.289740178
1.289728155
1.289756594
1.289774947
1.289793185
1.289829236
1.289847629
1.289797951
1.289750883
1.289756681
1.289781897
1.289773026
1.289741296
1.289727349
1.289736235
1.289746186
1.289866768
1.301031301
1.260345718
1.289306434
1.289719025
1.289709259
1.289726705
1.289745961
1.289764877
1.289780436
1.289794068
1.289770972
1.289756415
1.289763952
1.289790483
1.289795026
1.289768821
1.289742348
1.289745294
1.28976319
1.289886197
1.301788228
1.260015432
1.289272014
1.289696723
1.289698475
1.289703097
1.289718883
1.289746548
1.289738007
1.289730734
1.289745817
1.28976948
1.289775639
1.289784633
1.28979577
1.289792129
1.289771134
1.289763378
1.289774547
1.289893888
1.300371553
1.264191791
1.289327929
1.289688862
1.289693094
1.289679502
1.289686979
1.289731312
1.289707304
1.289682921
1.289727775
1.289784893
1.289783516
1.289767154
1.28977848
1.289810831
1.289812128
1.289791027
1.289779597
1.2898758
1.300916779
1.263735561
1.289352212
1.289689604
1.289686605
1.289657304
1.289652949
1.289696671
1.289685155
1.289664515
1.289718445
1.289787853
1.289786926
1.289752503
1.28975669
1.289815912
1.289850427
1.289823573
1.289784589
1.289850888
1.29889711
1.269036245
1.289468812
1.289688706
1.289672261
1.289640002
1.289627651
1.289654014
1.289668541
1.28967688
1.289710561
1.289772344
1.289788055
1.28975789
1.28974857
1.289806074
1.289861272
1.289846968
1.289796739
1.289830144
1.299333069
1.268346507
1.289503368
1.289678945
1.289651032
1.289637775
1.28962648
1.289625594
1.289655159
1.289691676
1.289698531
1.289737283
1.289784559
1.289783243
1.289764344
1.289786493
1.289838521
1.289851596
1.289816825
1.289835293
1.296885225
1.274663787
1.289585392
1.289663356
1.289634119
1.289648315
1.289644381
1.28962657
1.289651986
1.289690084
1.289685234
1.289703451
1.289775302
1.289818649
1.28979685
1.289773648
1.289801311
1.289836067
1.289834397
1.289847324
1.297259132
1.273541482
1.289582743
1.28965413
1.289632426
1.289659854
1.289663918
1.289646274
1.289655021
1.289679423
1.289687511
1.289691274
1.289752352
1.28982479
1.289822314
1.289780349
1.289775038
1.28980899
1.289834484
1.289855624
1.294495248
1.280852984
1.289645847
1.289664644
1.289653531
1.289670383
1.289674248
1.289664921
1.289663603
1.289686276
1.289712768
1.289705676
1.28972746
1.289793495
1.28982759
1.289800494
1.28976935
1.28978362
1.289816975
1.289836139
1.294795973
1.279085363
1.289655291
1.289694658
1.28967736
1.289680219
1.289660571
1.289677019
1.28966334
1.289710737
1.289745269
1.289737169
1.289713894
1.289746322
1.289806024
1.289815114
1.289776649
1.2897669
1.289792345
1.28980786
1.291861332
1.287300947
1.288828874
1.289692157
1.288493386
1.289688128
1.288367451
1.289639179
1.28863533
1.289705927
1.289128886
1.289754927
1.289399917
1.289737109
1.289636365
1.289875627
1.28972924
1.289832574
1.289729482
1.289778415
1.292203071
1.329402274
1.232683438
1.318976891
1.225069207
1.306335187
1.224432244
1.298570951
1.2309093
1.297447417
1.242597168
1.301775309
1.256456652
1.307743377
1.269044098
1.312108723
1.276951493
1.312492424
1.278523074
1.308767154
1.274430089
1.24656399
1.288973594
1.289821629
1.289873165
1.289884353
1.289899502
1.289918346
1.289931825
1.289906327
1.289858559
1.289804157
1.289714154
1.289643299
1.289616551
1.289614422
1.289603757
1.289587507
1.289594875
1.289853082
1.305982657
1.246425825
1.289007439
1.289863351
1.289920834
1.289931151
1.289943877
1.289965749
1.289964629
1.289923106
1.289867977
1.289824465
1.289754054
1.28968291
1.28963311
1.289622097
1.289625376
1.289629067
1.289645257
1.289894133
1.305986403
1.246983139
1.289016274
1.28984623
1.289906217
1.289928088
1.289950202
1.289977316
1.289960109
1.289906998
1.289843894
1.289811113
1.289769829
1.289700809
1.28962492
1.289601196
1.289620525
1.289648273
1.289670281
1.289900344
1.306605132
1.24665896
1.288996783
1.289807856
1.289861719
1.28990934
1.289947712
1.289970788
1.289945802
1.28989536
1.289834839
1.289801498
1.289790008
1.289729052
1.28963656
1.289599042
1.289629946
1.289676315
1.289699
1.289900431
1.306509246
1.248041281
1.28904167
1.289771864
1.289814756
1.289884026
1.289935014
1.289939503
1.289920035
1.289894221
1.289842471
1.289792865
1.289788085
1.289748458
1.289666832
1.289621469
1.289648624
1.289697845
1.289714191
1.289890291
1.307620938
1.247795301
1.289062465
1.289762546
1.28978812
1.289863514
1.289912691
1.28988589
1.289881591
1.289894421
1.289856048
1.289783711
1.289761102
1.289750998
1.289705809
1.289663114
1.289668839
1.289703722
1.289716963
1.289881404
1.307214454
1.250212948
1.289147813
1.289772414
1.289787969
1.289846192
1.289880076
1.289829581
1.289837269
1.289880319
1.289862029
1.289795853
1.289734359
1.289748328
1.289747682
1.289711866
1.289686531
1.289696787
1.289714728
1.289882907
1.308413379
1.250030005
1.289149663
1.289779375
1.289795333
1.289819051
1.289833893
1.289792033
1.289799305
1.289842723
1.289847391
1.289858939
1.289735552
1.289758601
1.289786825
1.289755991
1.289702929
1.289691672
1.289716807
1.289897058
1.307453596
1.253504729
1.289194249
1.28976225
1.289782423
1.289774785
1.289777903
1.289778518
1.289775257
1.289784994
1.289808605
1.289805876
1.289766401
1.289766362
1.289798109
1.289786412
1.289736555
1.289716
1.289730787
1.289904076
1.308319311
1.253396616
1.289150236
1.289714574
1.289749319
1.289725096
1.289724332
1.289776281
1.289765652
1.289730574
1.289757972
1.289801413
1.289799895
1.289770951
1.289772823
1.289791991
1.289784743
1.289766054
1.289755801
1.289904227
1.306509655
1.258143407
1.289233563
1.289682828
1.28971926
1.289692775
1.289685444
1.289763774
1.289757994
1.289702878
1.289720447
1.289794869
1.289827433
1.289778036
1.289739449
1.289786208
1.289834574
1.28982418
1.289779474
1.289877826
1.306868332
1.257888327
1.289267916
1.289681311
1.289697373
1.28968346
1.289663699
1.289712646
1.289735422
1.28970298
1.289704545
1.289773877
1.289836952
1.289801342
1.289740695
1.289778974
1.289858896
1.289856147
1.289791603
1.289857786
1.304272369
1.264136969
1.289432764
1.289696517
1.289679098
1.289677304
1.289655838
1.289647481
1.289703028
1.289729089
1.289710628
1.289746301
1.289824438
1.28983512
1.289783981
1.289781302
1.289844638
1.289853373
1.289801513
1.289850864
1.304312347
1.263588798
1.289474863
1.289704382
1.28965216
1.28965879
1.289652544
1.289620245
1.289683001
1.289753552
1.289722174
1.289715117
1.289790855
1.289861309
1.28984565
1.289794041
1.289802182
1.289824268
1.289820742
1.289881614
1.301140249
1.271128248
1.289588773
1.289690384
1.289626618
1.289631249
1.289653139
1.289644475
1.289686699
1.289752046
1.289732518
1.289700724
1.289752577
1.289861799
1.289884259
1.289812892
1.289771269
1.289800203
1.289839502
1.289901689
1.300980079
1.270020243
1.289569443
1.289670088
1.289631823
1.289624373
1.289652301
1.289683976
1.289698092
1.289729978
1.289746653
1.289717067
1.289732581
1.289819546
1.289869032
1.289827455
1.289778303
1.289797052
1.289841671
1.28989302
1.297459512
1.278806115
1.289635741
1.289673066
1.289677953
1.289654859
1.289659461
1.289693037
1.289693342
1.289710845
1.289764414
1.289765785
1.289741166
1.289757621
1.289808752
1.289830608
1.289816023
1.289812188
1.289818386
1.289820832
1.297169937
1.276837146
1.289621064
1.289708551
1.289716917
1.2897062
1.289652949
1.289673794
1.289655921
1.289697989
1.289772989
1.289831992
1.289770467
1.289708089
1.289747653
1.289818454
1.289844969
1.289825174
1.289783659
1.289747533
1.293472658
1.286693039
1.288572908
1.289697921
1.288224232
1.289733726
1.288060139
1.289605837
1.288408659
1.289668351
1.289078286
1.289846958
1.289508614
1.289731289
1.289633827
1.289866051
1.289864725
1.28988756
1.289773709
1.289726723
1.2932493
1.333102324
1.225716065
1.320217401
1.216229381
1.30488919
1.215585712
1.295583534
1.224354954
1.294705692
1.239672755
1.300419125
1.257439546
1.307959893
1.273376772
1.31326329
1.283206293
1.313165867
1.284448363
1.307575668
1.278726696
1.23059113
1.288426504
1.289824421
1.289927574
1.289946979
1.28995114
1.289919769
1.289932149
1.289925806
1.289882828
1.289806012
1.289701171
1.289620446
1.289558802
1.289540663
1.289568743
1.289591644
1.2895924
1.289905466
1.31638091
1.230292653
1.288535193
1.289867457
1.289960563
1.289976979
1.289968344
1.28997789
1.289991902
1.28995144
1.28987022
1.289800159
1.289734124
1.289676133
1.289612743
1.289588476
1.289602536
1.289616715
1.289617907
1.289929627
1.316609964
1.230957961
1.288637696
1.289864551
1.289937496
1.289951827
1.289951237
1.290008197
1.290011676
1.289938356
1.289827835
1.2897636
1.289740141
1.289705142
1.289640181
1.28960583
1.289604119
1.289615854
1.28962391
1.289925239
1.317651402
1.230192187
1.288661149
1.289848674
1.289887706
1.289915693
1.289950922
1.290016345
1.289999371
1.289919283
1.289811803
1.289749782
1.289743441
1.289721646
1.289663802
1.289621156
1.289606783
1.289628064
1.28965397
1.289942375
1.318134885
1.231841137
1.288703725
1.289808219
1.289835465
1.289888475
1.289967773
1.289985128
1.289943603
1.289900525
1.289837312
1.289774066
1.289737929
1.28971889
1.289682989
1.289641516
1.289613292
1.289641943
1.289683684
1.28994735
1.31984179
1.231119545
1.28862522
1.28976965
1.289808404
1.28988874
1.28999159
1.289917371
1.289847447
1.28986301
1.289881798
1.289854569
1.289732817
1.289692446
1.289696393
1.289669886
1.289629208
1.289649101
1.289698949
1.289943411
1.320066404
1.23416157
1.288645191
1.289771646
1.289835409
1.28990507
1.289988297
1.289858739
1.289767156
1.28981214
1.28992724
1.291511483
1.289724783
1.289654788
1.289709002
1.289721381
1.28966261
1.289653007
1.289696143
1.289915566
1.321613192
1.233627214
1.288622473
1.289790403
1.289875883
1.289895385
1.289927054
1.289823095
1.289734567
1.289775087
1.290020159
1.295923237
1.289754133
1.289650485
1.289739543
1.289781911
1.289707987
1.289661937
1.28968767
1.289899034
1.320895402
1.238210412
1.288781443
1.289788174
1.289863459
1.289834288
1.289825109
1.289810647
1.289759315
1.2897642
1.289872775
1.290523212
1.289753932
1.289685502
1.289765017
1.289816451
1.289756396
1.289699494
1.289697576
1.28987899
1.321571427
1.238120697
1.288823089
1.289740443
1.289795792
1.289745476
1.289731465
1.289804901
1.289806032
1.28977204
1.289782223
1.289835461
1.289800205
1.289739198
1.289759822
1.289799482
1.28978889
1.289755822
1.289734016
1.289888243
1.319415159
1.244557567
1.289027285
1.28968282
1.28971973
1.289703787
1.289691558
1.289772035
1.289828683
1.289799184
1.289733465
1.289754656
1.289831794
1.289804198
1.28974917
1.289760698
1.289798351
1.289813497
1.289781956
1.289883906
1.319016991
1.24442107
1.289069294
1.289658499
1.289666294
1.289717763
1.289707782
1.289702932
1.28979356
1.289823628
1.289728378
1.289701407
1.289833357
1.289872552
1.289779023
1.2897378
1.289788007
1.289838862
1.289818788
1.289904793
1.315423042
1.253035685
1.289272701
1.289678683
1.289647815
1.289741521
1.289741034
1.289629209
1.289711639
1.289823307
1.289764043
1.289692801
1.289792121
1.289909409
1.289861409
1.289769436
1.289769035
1.289822916
1.289831793
1.289908355
1.31434674
1.252697668
1.289288983
1.289701798
1.289645877
1.289712729
1.289732231
1.289614663
1.289657573
1.289803843
1.289816889
1.289715537
1.289718929
1.28989073
1.289950527
1.289840325
1.289764465
1.289783294
1.28982273
1.289931176
1.30977743
1.263062161
1.289472027
1.289706769
1.289649615
1.289636169
1.289685679
1.289668007
1.289679743
1.289794055
1.28984828
1.289752018
1.289671447
1.289819023
1.289973162
1.289898186
1.289784193
1.28976481
1.289807245
1.289909687
1.308375141
1.262022937
1.289454062
1.289693738
1.289683767
1.289590728
1.289633415
1.289736015
1.289750501
1.289779733
1.289828503
1.28979042
1.289697381
1.289740539
1.289891859
1.289903374
1.289825489
1.289788384
1.289798232
1.289877808
1.303359545
1.274166934
1.289581155
1.289697267
1.289752377
1.289622155
1.289615939
1.289755887
1.289789345
1.289736968
1.289761777
1.289826787
1.289791586
1.289715484
1.289748702
1.289846458
1.289887101
1.289847845
1.289789956
1.289790773
1.301827646
1.271766074
1.289549285
1.289733979
1.289754172
1.289702666
1.289606294
1.289729682
1.289741742
1.289665716
1.289666627
1.289867993
1.289903286
1.289739436
1.28964843
1.289769404
1.289916132
1.28989933
1.289784349
1.289725334
1.296651497
1.285305991
1.288076726
1.289686325
1.287526496
1.289667622
1.287308122
1.289525828
1.287950672
1.289530604
1.288698255
1.289849816
1.28962534
1.2898207
1.289573399
1.289808626
1.289954323
1.289955279
1.289809131
1.289719462
1.29525712
1.337524976
1.213657181
1.318500522
1.200139228
1.295438524
1.198750409
1.28183458
1.210536602
1.283481385
1.231335358
1.296004853
1.254792087
1.310317039
1.275385484
1.321036226
1.287297229
1.323306117
1.286570331
1.315541454
1.276543515
1.21279124
1.287769268
1.289839847
1.289952273
1.290003446
1.290084873
1.289938225
1.289888659
1.289877857
1.289845547
1.28979427
1.28969704
1.289539828
1.289413267
1.289403336
1.28949031
1.289601483
1.289621863
1.290041521
1.331472224
1.21230814
1.2879259
1.289841078
1.289951015
1.290028039
1.290056478
1.289966094
1.289965959
1.289975012
1.289904667
1.289790111
1.289727399
1.28965703
1.28957089
1.289530653
1.289542462
1.289581446
1.289599917
1.290037082
1.331946966
1.21279243
1.288118123
1.289849406
1.289948075
1.289993066
1.289974207
1.289989349
1.290026089
1.290007555
1.289902378
1.289717806
1.289697482
1.289721194
1.289697674
1.289629038
1.289564603
1.28953869
1.289556162
1.289997805
1.333826317
1.211656118
1.288178529
1.289898595
1.289973697
1.289934726
1.289911701
1.290049921
1.290065339
1.289955014
1.289839261
1.289669845
1.289612502
1.28970474
1.289767118
1.289694635
1.289581168
1.289518786
1.289554208
1.289995591
1.334934968
1.212987588
1.288188966
1.289898558
1.289964319
1.289882621
1.289910017
1.290039478
1.290013922
1.289851767
1.289812745
1.289823618
1.289584717
1.289651376
1.289734198
1.28969256
1.289602789
1.289539722
1.289587717
1.289983298
1.337908686
1.212012482
1.28794018
1.289823722
1.289923038
1.289867984
1.289970413
1.289997245
1.2898955
1.289751884
1.289866852
1.292996771
1.289749084
1.289612176
1.289617363
1.289647127
1.28962695
1.289591317
1.289635565
1.289965274
1.338547237
1.214966195
1.287878071
1.289769164
1.28991502
1.289892748
1.290018812
1.289975299
1.289810817
1.289727505
1.291990841
1.347216334
1.291043922
1.289596155
1.289537005
1.289649324
1.289676264
1.289647855
1.289666062
1.289902569
1.341144886
1.21459855
1.287851933
1.289768535
1.289928657
1.2899095
1.289984295
1.289957068
1.289782364
1.289823809
1.297359742
1.398839417
1.292798818
1.289649228
1.289564077
1.289716642
1.289752511
1.289693155
1.289678754
1.289855706
1.340294059
1.219668453
1.288231953
1.289791519
1.289905333
1.289865834
1.289871829
1.289908504
1.289819156
1.289764514
1.290701123
1.317278015
1.290235662
1.289671944
1.289655786
1.289758988
1.289794216
1.289722269
1.289694446
1.28981527
1.341218069
1.22034452
1.288431418
1.289792516
1.289830171
1.289781052
1.289770853
1.289836371
1.289862365
1.289858188
1.289867503
1.291041006
1.289809656
1.289754756
1.289741959
1.289764246
1.289774528
1.28972741
1.289721845
1.289847658
1.338156108
1.228031502
1.288782249
1.289728513
1.289731723
1.289743044
1.289745446
1.289760046
1.28984375
1.289905437
1.289825034
1.28974752
1.289762554
1.289824428
1.289826525
1.289776195
1.28973484
1.289726328
1.289759484
1.289873865
1.337088557
1.228792187
1.288744404
1.2896573
1.289666241
1.289769962
1.289795766
1.289702108
1.289764919
1.289880367
1.289810785
1.289691677
1.28972979
1.289851199
1.28989426
1.289813275
1.289720498
1.289726917
1.289791869
1.289932979
1.331904793
1.23962155
1.288938772
1.289648428
1.289660832
1.289813376
1.289847609
1.289677764
1.289676512
1.289806872
1.28984258
1.289749321
1.28970444
1.289837847
1.289947938
1.28987652
1.289742974
1.28973556
1.289806044
1.289931291
1.329290819
1.240000001
1.288890187
1.289674745
1.289699861
1.289786156
1.289814001
1.289702483
1.289651963
1.289752649
1.289896006
1.289844853
1.289702399
1.289786025
1.289951628
1.289927028
1.289789599
1.289752093
1.289795498
1.289933888
1.322602678
1.253454206
1.289242856
1.289709389
1.289748107
1.289693436
1.289714104
1.289723763
1.289698993
1.289772564
1.289926887
1.289894999
1.28972252
1.289731193
1.289905479
1.289932056
1.289837131
1.289783581
1.28977767
1.289872061
1.319172626
1.252856348
1.289328901
1.289744984
1.289773007
1.289623767
1.289636111
1.289741774
1.289792618
1.289834539
1.289880201
1.289872987
1.289780722
1.289726852
1.289814697
1.289880574
1.289870773
1.289828969
1.289769005
1.289843622
1.312030217
1.26869297
1.289608357
1.289758574
1.289774122
1.28962743
1.289628752
1.28975584
1.289848761
1.289821222
1.289752637
1.289805383
1.289869237
1.289787404
1.289728337
1.289794959
1.289892587
1.289876981
1.289774931
1.289782736
1.308497985
1.265988973
1.289530208
1.289763985
1.289653205
1.289682984
1.289617967
1.289791267
1.289808841
1.28972183
1.289588602
1.289739291
1.28993717
1.289871672
1.289696143
1.289722773
1.289896853
1.289906069
1.289788904
1.28976312
1.3013706
1.283646292
1.287358937
1.289675323
1.286204655
1.289595352
1.286186745
1.289534271
1.287297299
1.289467661
1.288379791
1.289717707
1.289676047
1.289989039
1.289809531
1.289840208
1.290100408
1.289974293
1.289932276
1.289781455
1.298083404
1.344407361
1.198312662
1.319546652
1.179679151
1.289356718
1.177948625
1.271527685
1.195329161
1.2739011
1.224647894
1.290283084
1.257433368
1.309867181
1.28655273
1.324963101
1.303707856
1.32670021
1.301831737
1.313518528
1.286923157
1.182819567
1.286251772
1.289896056
1.290065087
1.289869889
1.29015602
1.290195369
1.289745982
1.289546871
1.28987035
1.28996521
1.289546456
1.289304442
1.289474618
1.289559723
1.289350399
1.289381952
1.289546818
1.290073293
1.360531083
1.181649409
1.286312123
1.289743752
1.289926882
1.290055899
1.290184004
1.290006065
1.289890664
1.289893333
1.289950305
1.28987205
1.289647245
1.28949307
1.289509164
1.289537136
1.289479821
1.289480734
1.289563209
1.290044765
1.361861959
1.182078293
1.286447781
1.289679305
1.289895725
1.290141881
1.290076693
1.289851484
1.290066569
1.29014973
1.289894412
1.289701883
1.289725384
1.289682674
1.289536192
1.289491354
1.289555737
1.289526772
1.289535538
1.289928582
1.36554427
1.179561552
1.286431156
1.289800247
1.290050522
1.290079429
1.289879341
1.289885874
1.29023726
1.290202148
1.289673849
1.289519152
1.289784069
1.289833873
1.289580676
1.289478434
1.289579664
1.289527647
1.289507249
1.289829994
1.369030704
1.180851303
1.286515152
1.289903244
1.290170667
1.289946373
1.289752269
1.289973004
1.290287921
1.290109007
1.289583552
1.291644057
1.289786209
1.289863821
1.289585874
1.289474033
1.289592501
1.289537186
1.289508132
1.289702264
1.374683063
1.178440674
1.286170328
1.289872027
1.29013423
1.289866879
1.289788181
1.290069405
1.290222312
1.289958853
1.291015745
1.335753458
1.290117922
1.289850784
1.289530021
1.289418607
1.289610744
1.289584532
1.289556821
1.289612384
1.377992871
1.18196511
1.286130024
1.289755226
1.290009515
1.289856709
1.289891893
1.290121969
1.290184624
1.290706347
1.319942861
1.674524035
1.306031354
1.290109524
1.289400816
1.289345123
1.289655531
1.289679652
1.289630047
1.289494321
1.382296727
1.180703936
1.286121351
1.289677701
1.289894296
1.289858065
1.289927381
1.290098207
1.29019582
1.292384705
1.34738791
1.575337312
1.324087125
1.291116742
1.289298976
1.289339324
1.289745921
1.289778948
1.289695378
1.289439151
1.382609655
1.187470821
1.286804687
1.289716079
1.289844381
1.289847198
1.28987522
1.289991132
1.29009516
1.290350439
1.306168546
1.430082828
1.296019783
1.289984495
1.289372412
1.289416491
1.289817553
1.289823892
1.289735357
1.289398084
1.383092452
1.188105955
1.287066663
1.289793334
1.289840758
1.289816513
1.289805233
1.289852314
1.289976806
1.289958831
1.29042291
1.309317738
1.289945023
1.289878099
1.289587768
1.28954456
1.28981057
1.289786062
1.289741134
1.289460464
1.378828911
1.198898337
1.28765407
1.289803701
1.289832145
1.289783593
1.289772123
1.28978407
1.28992202
1.289979636
1.289799593
1.290785875
1.289801354
1.289927532
1.289800989
1.289697939
1.289751144
1.289702764
1.289727743
1.289521103
1.375147045
1.199985365
1.287535337
1.289701808
1.2898234
1.289778286
1.289793926
1.289822626
1.289904935
1.289880699
1.289700115
1.289727186
1.28983755
1.289908863
1.289915197
1.289829352
1.289731582
1.289639375
1.289711008
1.289646322
1.366530344
1.215684261
1.287918437
1.289631719
1.289839219
1.289786397
1.289791918
1.28989866
1.289872705
1.289713572
1.289697217
1.289866922
1.289896829
1.289797826
1.289880592
1.289916882
1.289772262
1.289636673
1.289707366
1.289694279
1.359772651
1.216793077
1.287894538
1.289611722
1.289881637
1.289783074
1.289734389
1.289913335
1.289825738
1.289582339
1.289782861
1.290085223
1.289898242
1.289602826
1.289747193
1.289977434
1.289858301
1.289697306
1.289715117
1.289766976
1.348342794
1.236301594
1.288706026
1.289664492
1.289921341
1.289770057
1.289680075
1.289812884
1.289732534
1.289577449
1.289883973
1.290162982
1.28986651
1.289533279
1.289660995
1.28995308
1.289911858
1.289778736
1.289732293
1.289747629
1.340526639
1.236055259
1.289014413
1.289770894
1.289849645
1.289757646
1.289720269
1.289683149
1.289680233
1.2897518
1.289943912
1.29000411
1.289830632
1.289665676
1.289723237
1.289875258
1.289901157
1.289840158
1.289761518
1.289789763
1.328740238
1.259094595
1.289659849
1.289829384
1.289669893
1.289733558
1.289814403
1.289647626
1.289716413
1.28990361
1.289873224
1.289743169
1.289829187
1.289912526
1.289851886
1.28977442
1.289822954
1.289865191
1.28980377
1.289791548
1.321251528
1.255345818
1.28950466
1.289773927
1.289353052
1.289678981
1.289731987
1.289751387
1.289715965
1.289954633
1.289703399
1.289484825
1.289773009
1.290131606
1.289964182
1.289668076
1.289718601
1.289858754
1.289848094
1.289847543
1.310157655
1.281070335
1.286013861
1.289590324
1.283477903
1.289194413
1.283767721
1.28886505
1.285727677
1.289195872
1.287847746
1.289312518
1.28937676
1.290344495
1.290247798
1.289852492
1.289975928
1.289803597
1.289995975
1.289777344
1.303263634
1.353212997
1.174235827
1.316548912
1.147685237
1.2695057
1.144717639
1.240757998
1.169847347
1.249025518
1.211679498
1.27989256
1.256268053
1.314298627
1.295535342
1.343091157
1.318103046
1.351446784
1.310187619
1.331892406
1.284164959
1.150089667
1.284166652
1.289998894
1.290337021
1.289570442
1.289789732
1.290424538
1.290193378
1.289764874
1.289631829
1.289546391
1.28961674
1.289655036
1.289595416
1.289482013
1.289282838
1.289150165
1.289388634
1.289930919
1.394172115
1.147555712
1.283865926
1.289724505
1.289982521
1.290058101
1.290152302
1.290149578
1.289936375
1.28975046
1.289811191
1.289729062
1.28958724
1.289525954
1.289530627
1.289501242
1.289415097
1.289368073
1.289494761
1.289887627
1.396809702
1.147257078
1.283780659
1.289552061
1.28977788
1.290340105
1.29028632
1.2898281
1.289731668
1.289662628
1.289927851
1.289929738
1.289494197
1.28932909