/*--------------------------------*- C++ -*----------------------------------*\
| =========                 |                                                 |
| \\      /  F ield         | OpenFOAM: The Open Source CFD Toolbox           |
|  \\    /   O peration     | Version:  5.x                                   |
|   \\  /    A nd           | Web:      www.OpenFOAM.org                      |
|    \\/     M anipulation  |                                                 |
\*---------------------------------------------------------------------------*/
FoamFile
{
    version     2.0;
    format      ascii;
    class       volScalarField;
    location    "10";
    object      T;
}
// * * * * * * * * * * * * * * * * * * * * * * * * * * * * * * * * * * * * * //

dimensions      [0 0 0 1 0 0 0];

internalField   nonuniform List<scalar> 
30538
(
279.675713
273.1307956
273.0114195
273.0103633
273.0154483
273.0197411
273.0222161
273.0223387
273.0210401
273.0166061
273.0120938
273.0091435
273.0068558
273.0034661
273.0004171
273.0009548
273.0048202
273.0074955
272.9815307
271.180144
279.6934695
273.1206946
273.0037812
273.0032996
273.0074113
273.0111411
273.0138584
273.0144178
273.0139602
273.0107976
273.0063053
273.0015934
272.9978814
272.9950527
272.9934353
272.9941688
272.9971503
272.9998219
272.9748189
271.1971247
279.5762906
273.1141044
273.0032209
273.00366
273.0065614
273.0096208
273.0125886
273.0134072
273.0134996
273.0116848
273.0075783
273.0012028
272.9958852
272.9935876
272.9933397
272.9940665
272.9960232
272.9988516
272.9756832
271.1444105
279.6297331
273.1109129
273.002823
273.0037893
273.0057412
273.0081326
273.0115818
273.0127339
273.012673
273.0112806
273.0077455
273.0007151
272.994681
272.9927988
272.9935038
272.9939223
272.9948393
272.9974591
272.9762721
271.208896
279.3558684
273.1035292
273.0022559
273.0032171
273.0048243
273.0067856
273.0107696
273.0123628
273.0114135
273.009311
273.0061062
272.9999914
272.9945713
272.9930721
272.9942095
272.9944968
272.9950278
272.9969796
272.9763991
271.0864498
279.4072243
273.1023409
273.0011803
273.0012454
273.0031332
273.0050301
273.0093992
273.0116114
273.010007
273.0064284
273.0027923
272.9988476
272.9953268
272.9940029
272.9953398
272.9964944
272.9972573
272.9979143
272.9771484
271.2048356
278.9524624
273.0929041
272.9990053
272.9983126
273.0008623
273.0029103
273.0069895
273.0097577
273.0083483
273.0032604
272.9989864
272.9975164
272.9964469
272.9953409
272.9964324
272.9988856
273.0004765
273.0000761
272.9787238
271.0450069
279.0090605
273.0901642
272.9967764
272.995462
272.9984446
273.0008496
273.0037651
273.0066163
273.006073
273.000253
272.9958843
272.9964816
272.9976699
272.997159
272.9976755
273.0004366
273.0027653
273.0024211
272.9817973
271.2328987
278.3782249
273.0759665
272.995506
272.9939485
272.9966922
272.9993801
273.0009096
273.0024863
273.0025708
272.9975228
272.9942366
272.99602
272.9993992
273.0000043
272.9992293
273.0006628
273.0032503
273.0044295
272.9858542
271.0704537
278.4530102
273.0717436
272.9960551
272.9938609
272.9954516
272.9979683
272.9987629
272.998371
272.9980918
272.9955875
272.9941813
272.9962401
273.0008573
273.0033418
273.0019219
273.0008218
273.002719
273.0057249
272.9898902
271.3584528
277.6450437
273.0570223
272.9967658
272.9939893
272.9937806
272.9958455
272.9971473
272.9949618
272.9938718
272.9947731
272.9955038
272.9968156
273.0014338
273.0056044
273.0052742
273.0028054
273.0032528
273.0066407
272.993235
271.2180635
277.7578284
273.0543426
272.9965614
272.9933036
272.99141
272.992881
272.9948607
272.9923305
272.991313
272.995077
272.9976292
272.9978087
273.0004583
273.0053439
273.0083412
273.0073126
273.0063275
273.0077235
272.9939959
271.5907345
276.7470555
273.0383507
272.9945007
272.9920438
272.9897925
272.9902281
272.9919346
272.9903053
272.9908427
272.9955698
272.9994693
272.999675
272.9993415
273.0032674
273.0098587
273.0127052
273.0111697
273.008817
272.9933388
271.4469551
276.9101438
273.0339941
272.991953
272.9909949
272.9904502
272.9895408
272.9892451
272.9888254
272.9908805
272.9948434
273.0000417
273.0022169
273.0001708
273.0018606
273.0096384
273.0158195
273.0152552
273.0096889
272.9926708
271.8971922
275.7133725
273.017551
272.9904326
272.9910148
272.9927003
272.9908065
272.988145
272.9884764
272.9904452
272.9930735
272.9991994
273.0048124
273.0038555
273.003013
273.0084161
273.015126
273.015843
273.0099428
272.9948259
271.7689983
275.9599762
273.0145261
272.9905002
272.9911578
272.9939578
272.9924546
272.9895185
272.9900055
272.9904612
272.9916156
272.9972485
273.0054194
273.0082962
273.0070466
273.0075718
273.011034
273.0124441
273.0098804
272.9995186
272.2825853
274.596031
273.0039351
272.9917029
272.9912061
272.9928872
272.9933381
272.9928755
272.9933714
272.9926504
272.9924222
272.995492
273.0033695
273.0105841
273.0116402
273.0078385
273.005549
273.0069727
273.009634
273.0061522
272.1800849
274.9615288
273.0068761
272.9939416
272.9946543
272.9912661
272.9967918
272.9970142
272.9997829
272.996788
272.9966819
272.994609
273.0005252
273.009526
273.0128082
273.0081487
273.0018477
273.0023142
273.0085914
273.0110106
272.7220253
273.4436142
273.168866
273.0020378
273.2236746
272.9910632
273.2413862
273.0037239
273.2031261
273.0048594
273.1265029
272.9965882
273.0626456
273.0013969
273.0414768
272.9942867
273.0144172
272.988566
273.016242
273.0070947
272.6036806
265.1208694
284.8061499
266.8490855
286.2632583
268.9825604
286.3576549
270.3729021
285.0474001
270.7626198
282.7136592
270.2328168
279.9506389
269.3809015
277.4708601
268.7892048
275.8411911
268.8039658
275.4412787
269.4807101
276.1368358
280.8097863
273.1535939
273.0118011
273.0099468
273.014175
273.0172824
273.0198537
273.020338
273.0196758
273.0159931
273.0114831
273.0063575
273.0023854
272.9998163
272.9976476
272.9966831
272.9983943
273.0015392
272.9713042
270.7145941
280.8322646
273.1430282
273.0044656
273.0040156
273.0075227
273.0102107
273.0126065
273.0123838
273.011473
273.008751
273.0049028
272.9993606
272.9943375
272.9911755
272.9895095
272.9893793
272.991499
272.9946766
272.9649955
270.724834
280.696562
273.1348336
273.0032813
273.004398
273.0076098
273.0099509
273.0123232
273.0115492
273.0103366
273.0084112
273.0054802
272.9996984
272.9935625
272.9894828
272.9882663
272.9892137
272.991913
272.9949223
272.9659913
270.6504394
280.7600747
273.1307074
273.0014098
273.0033702
273.0068285
273.0090859
273.0117089
273.0112222
273.0097372
273.0078213
273.0052325
273.0000357
272.9936386
272.9888708
272.9878202
272.9896235
272.9925086
272.9948802
272.9666298
270.6906486
280.4552276
273.122183
272.9998599
273.0015489
273.0053698
273.0076163
273.0105875
273.0112199
273.0098578
273.0066717
273.0034417
272.9996305
272.9944997
272.9896303
272.9884454
272.9907184
272.9934965
272.9948775
272.9671955
270.5430712
280.5280136
273.1225464
272.9992631
272.999467
273.0033902
273.0055367
273.0084718
273.0107013
273.0097423
273.0049007
273.0002611
272.9981303
272.9955052
272.9915503
272.9901115
272.9921696
272.9946289
272.9953712
272.9684818
270.6301887
280.0247317
273.1131982
272.9988622
272.9975802
273.0011935
273.0031922
273.0056172
273.0085517
273.008652
273.0027836
272.9971158
272.9963076
272.9965351
272.9941996
272.9924271
272.9934607
272.9956574
272.9965516
272.9714734
270.4576347
280.0891795
273.1103453
272.998092
272.9960357
272.9989405
273.0010318
273.0024847
273.0049217
273.0055154
273.0003049
272.9953144
272.9954595
272.9975307
272.9970412
272.9948846
272.9945807
272.9964838
272.9982281
272.9753014
270.6344334
279.3726089
273.0920713
272.9965183
272.9950698
272.996973
272.9989968
273.0002729
273.0006981
273.0006884
272.9976893
272.9956021
272.9959537
272.9982845
272.9991221
272.9975715
272.9962533
272.9976275
272.9999883
272.9796993
270.4818899
279.4378717
273.0844911
272.9949374
272.9945964
272.9953194
272.9968873
272.9987366
272.9969207
272.9950618
272.9953636
272.9967138
272.9971763
272.9982178
272.9997784
273.0002398
272.9994175
272.9998245
273.0015067
272.9821327
270.7784327
278.5102892
273.0647827
272.9942346
272.9943419
272.9934367
272.9941446
272.9972402
272.9940603
272.9908124
272.993844
272.9983268
272.9984593
272.9975585
272.9992917
273.0028591
273.003925
273.0031219
273.0027532
272.9840731
270.6629798
278.6124935
273.0618909
272.9943062
272.9937793
272.9915006
272.9910501
272.9940047
272.9919079
272.9891786
272.9932775
272.9991559
272.9996776
272.9974468
272.9986732
273.0044996
273.0083111
273.0068871
273.0040303
272.9843844
271.0794297
277.4534206
273.0455207
272.9938691
272.9923794
272.9898503
272.9886018
272.9900491
272.9902941
272.9902722
272.9930221
272.9986168
273.0008563
272.9991653
272.9992823
273.0048706
273.0102889
273.0097896
273.0058589
272.9869985
270.9861217
277.6066866
273.0435098
272.9927651
272.9903014
272.9894007
272.9882003
272.9873735
272.9890639
272.9917258
272.9925159
272.9964845
273.0016542
273.0025603
273.0018253
273.0042745
273.009226
273.0108925
273.0081337
272.9903492
271.4994369
276.2298051
273.0253424
272.9910407
272.9885772
272.9900023
272.989444
272.9872807
272.9888084
272.991876
272.9919179
272.9943863
273.0017851
273.006566
273.0054702
273.0038817
273.0065253
273.0098908
273.0098222
272.9959455
271.4257607
276.4703254
273.0210813
272.9900303
272.988191
272.99074
272.9908871
272.9888897
272.9892049
272.9913323
272.9926385
272.9939844
273.0004485
273.007637
273.0080236
273.0046568
273.0042761
273.0074701
273.0096126
272.9995699
272.0088128
274.8919352
273.0061342
272.99073
272.9898846
272.9914468
272.9916895
272.9905106
272.9901968
272.992304
272.9952435
272.9956181
272.9985543
273.0050687
273.0084173
273.0062121
273.0034833
273.0048928
273.0076347
273.001924
271.9460026
275.2750588
273.0074709
272.9933444
272.9967378
272.9923548
272.9960175
272.9918914
272.9944661
272.9948549
273.0002011
272.998463
272.9979496
273.000758
273.00631
273.0069397
273.0035187
273.0027924
273.0048173
273.0017112
272.5612463
273.5209041
273.1893977
273.0043692
273.2609809
272.999019
273.2748047
273.0048575
273.2218029
273.0060107
273.1414256
273.0020058
273.065476
272.994606
273.0329484
272.9911292
273.0147045
272.9875331
273.0112419
272.9998926
272.4864292
264.858814
285.63994
266.9524767
287.4091406
269.531208
287.5610569
271.1385448
286.0462625
271.3838025
283.3642513
270.4836459
280.2278554
269.2380382
277.4611718
268.3567593
275.7414179
268.2749222
275.4007416
269.0340842
276.2857439
282.4720771
273.1814786
273.0149691
273.016239
273.0168279
273.0179902
273.0198641
273.0218069
273.0206364
273.017555
273.0135591
273.0063366
272.9996792
272.9964898
272.9954174
272.9943509
272.9944857
272.9966763
272.9561418
269.6007978
282.4980633
273.1738077
273.0084948
273.0104163
273.0109597
273.0120752
273.0141838
273.0147812
273.0121645
273.0084031
273.005216
272.9995503
272.9927553
272.9875221
272.9857215
272.9859197
272.9877167
272.9904054
272.9502409
269.6008373
282.3629277
273.1677326
273.006981
273.0093474
273.0110273
273.013114
273.0157125
273.0148412
273.0110462
273.0063845
273.0038933
273.000478
272.9937688
272.9862356
272.983363
272.9850463
272.9888988
272.99207
272.9522998
269.473625
282.4298825
273.1649164
273.0038397
273.0058334
273.0099154
273.0135729
273.0158897
273.0142179
273.0103946
273.0056097
273.0027618
273.001645
272.9955578
272.986563
272.9826049
272.9854101
272.9908303
272.9940181
272.9547878
269.4932177
282.1191135
273.1545094
273.0007843
273.0021819
273.008287
273.0132245
273.0140071
273.0126588
273.010674
273.0062563
273.0017075
273.0008411
272.9965112
272.9885149
272.9840532
272.9866842
272.9922656
272.9949158
272.9569432
269.2630115
282.1844187
273.1533744
273.0002216
273.0003201
273.0071309
273.0120597
273.0102167
273.0099931
273.011032
273.0073815
273.000542
272.9979091
272.9960974
272.9913608
272.9873731
272.988296
272.992549
272.9949031
272.9592618
269.346688
281.6480324
273.1402369
273.0011481
273.0007965
273.0062608
273.009968
273.0060604
273.0067134
273.0100006
273.007789
272.9974941
272.995098
272.9953931
272.9946366
272.9914755
272.9899154
272.9919452
272.9946163
272.9632759
269.1031022
281.6886462
273.1366049
273.0020789
273.0019761
273.0045457
273.0066211
273.0033413
273.0037918
273.0068677
273.0062404
272.9865736
272.9947971
272.9959641
272.997905
272.9954179
272.991626
272.9917394
272.9948303
272.9673409
269.3065893
280.8963914
273.1140224
273.0006715
273.001413
273.001302
273.0022955
273.0024559
273.0018214
273.0017872
273.0027857
273.0002234
272.9972203
272.9965231
272.9989856
272.9982882
272.9949421
272.9942034
272.996267
272.9722276
269.1335084
280.9061319
273.1061813
272.9969203
272.9990392
272.9974638
272.9979762
273.0023567
273.0008917
272.9969567
272.998255
273.0010105
273.0001266
272.9971311
272.9971877
272.9992784
272.9996814
272.9991202
272.9988752
272.9740754
269.5066411
279.8413998
273.0817888
272.9941646
272.9968076
272.9949329
272.9946526
273.0010749
272.9998765
272.9942536
272.994891
273.0004819
273.0027817
272.9982056
272.9949412
272.9994884
273.0047619
273.0049725
273.0016975
272.9765912
269.4278618
279.9023359
273.0800215
272.9942401
272.995152
272.9942202
272.9925777
272.9962665
272.9974119
272.9938999
272.99343
272.9988707
273.0040724
273.0008722
272.9958297
272.9997017
273.0077405
273.0086911
273.0037124
272.9769181
269.9587454
278.5290044
273.0598231
272.9954084
272.9937083
272.9936192
272.9914993
272.9900792
272.9940852
272.9958095
272.9939477
272.9968495
273.0036142
273.0045197
273.0003536
273.0007267
273.0073609
273.0093887
273.0055534
272.9821699
269.9512689
278.6565927
273.0595171
272.9961583
272.9914624
272.9918705
272.990783
272.9871701
272.9918863
272.9976551
272.9950218
272.99459
273.0013883
273.0075342
273.0063889
273.0025261
273.0043885
273.0076173
273.0079365
272.9874768
270.6163317
277.0041867
273.0359146
272.9947558
272.9892254
272.9893018
272.9904376
272.9888044
272.9918578
272.9973872
272.9960474
272.993775
272.9986713
273.0082058
273.0102276
273.00455
273.0020017
273.0058496
273.0098494
272.9955902
270.657221
277.2423483
273.0311291
272.9929374
272.9894921
272.9884465
272.9900365
272.9919344
272.9927172
272.9955253
272.9974699
272.9955249
272.9973765
273.0049814
273.0091904
273.0058922
273.002512
273.0054323
273.0098791
272.9979826
271.3909672
275.3353461
273.0096648
272.992874
272.9932503
272.9907631
272.9905295
272.9926556
272.9924655
272.9941334
272.9992999
273.0000106
272.9983772
272.999912
273.0041813
273.0061723
273.0055446
273.0063244
273.0074375
272.9978341
271.4427876
275.7574187
273.0106874
272.995639
273.0029585
272.9950583
272.9972402
272.9913374
272.9945345
272.9934508
273.0024066
273.0059313
273.0016187
272.9958121
272.9991057
273.0051587
273.0076509
273.0069577
273.0037246
272.9944391
272.2080138
273.644258
273.237291
273.0086026
273.3368764
273.0039954
273.3432047
273.0038699
273.2597199
273.0028561
273.1538121
273.0087474
273.0664183
272.9915453
273.012624
272.9872052
273.0025483
272.9898645
272.9985071
272.9922759
272.2511261
264.1193254
287.2614501
266.7041842
289.5071068
269.8397564
289.65065
271.7585574
287.5745451
271.9511459
284.0391974
270.7767853
280.0169767
269.1960738
276.5047396
268.1151822
274.4075477
268.1425713
274.1275603
269.2714348
275.350044
286.1219299
273.2791447
273.0185646
273.0224077
273.0235885
273.0239162
273.0215767
273.0234924
273.0239512
273.0212152
273.0151196
273.0061061
272.9976226
272.9903827
272.9878227
272.9907981
272.9949114
272.9967637
272.9410343
267.4699275
286.1955305
273.2766934
273.0121487
273.0153828
273.0162502
273.0156291
273.0167109
273.0186557
273.0162755
273.0103265
273.0046903
272.9988025
272.9921166
272.9846427
272.9815885
272.9834287
272.9867065
272.9881739
272.933641
267.4221975
286.0439846
273.2775077
273.0117169
273.0134979
273.0144056
273.0145913
273.0197178
273.0207307
273.0154693
273.0068582
273.0014806
272.9989578
272.9941587
272.986579
272.9826866
272.9831852
272.9861259
272.988218
272.9370129
267.2110434
286.2220492
273.2822165
273.0104608
273.0093805
273.0117481
273.0151634
273.0210691
273.020285
273.014248
273.00563
273.0001114
272.9987207
272.994987
272.9881104
272.9836425
272.9830689
272.9866319
272.9902419
272.9420356
267.1162576
285.8383202
273.2641637
273.0066959
273.0050819
273.0098643
273.0173193
273.0192117
273.0162581
273.013069
273.0079394
273.0019149
272.9976711
272.9941198
272.9892785
272.9851017
272.983353
272.987337
272.992308
272.9489047
266.7729625
286.0033014
273.2558195
273.0034251
273.0029353
273.0103421
273.0200847
273.0143056
273.0087843
273.0103142
273.0117494
273.0002819
272.9966754
272.991276
272.9900231
272.9873928
272.9846274
272.9876628
272.9932224
272.9532496
266.7282581
285.2967242
273.2283145
273.003309
273.005489
273.0122294
273.0205064
273.0100969
273.0025903
273.0063272
273.0109006
272.6671058
272.9936453
272.9876115
272.9908927
272.9917991
272.9875996
272.9879112
272.9927083
272.9591043
266.4178039
285.4173515
273.2220453
273.0051111
273.0093195
273.0119422
273.0159156
273.0076592
273.0002874
273.0031478
272.9924879
271.7473831
272.9845712
272.986844
272.9933927
272.9971305
272.9917579
272.9887728
272.9918438
272.9612383
266.5643431
284.3560606
273.191854
273.0045505
273.0086778
273.0072466
273.0077284
273.0069661
273.0025507
273.0023159
273.0090624
272.8769838
272.9965719
272.9896158
272.9955759
273.0003044
272.9963028
272.9922817
272.9928152
272.9666642
266.4305239
284.3731347
273.1906286
273.0007451
273.0033195
273.0000422
272.9999668
273.0065969
273.0064657
273.0027915
273.0025002
273.0026311
273.0008461
272.9942191
272.9953089
272.9992569
272.9996967
272.997692
272.996309
272.9683739
266.8685691
282.9066426
273.1552581
272.9954018
272.9971717
272.9966876
272.9965133
273.0035394
273.0079987
273.0047679
272.998076
272.9985305
273.0035698
272.9999457
272.9947563
272.9965158
273.001326
273.0035334
273.0011582
272.974689
266.9489459
282.939937
273.1502181
272.993487
272.9928087
272.9978291
272.9975166
272.9970161
273.0043372
273.0063372
272.9973361
272.9938604
273.0038522
273.0061273
272.9978255
272.995294
273.0014077
273.0068466
273.0053962
272.9765099
267.677711
280.9999051
273.1087171
272.9948081
272.9913656
272.9995545
272.9995975
272.9898136
272.9965415
273.0057477
273.0001238
272.9930988
273.0005808
273.009683
273.0054518
272.9986789
273.0006755
273.0065968
273.0077038
272.984127
267.898898
281.077756
273.1032511
272.9970025
272.9913245
272.9967087
272.998092
272.9876767
272.9910935
273.0035511
273.0043792
272.9950801
272.9946032
273.0085534
273.0135908
273.005274
273.0008879
273.0040239
273.0078228
272.9863268
268.8371496
278.7702854
273.0606659
272.9970617
272.9915695
272.9897549
272.9934028
272.9914965
272.9923363
273.0022253
273.0068291
272.9982504
272.990821
273.0028483
273.015862
273.0104757
273.0026959
273.0027728
273.0068992
272.9926888
269.1277115
279.0000518
273.054147
272.9958967
272.9943052
272.9854799
272.9883677
272.9968203
272.9980253
273.0007121
273.0050405
273.0016687
272.9934112
272.9965611
273.0092282
273.0109839
273.006083
273.0046616
273.0060607
272.9911992
270.1589123
276.3393777
273.0185777
272.995672
272.9999962
272.9878071
272.9866954
272.9982692
273.0013459
272.9970925
272.9994387
273.005034
273.001837
272.9948705
272.997361
273.0062259
273.011195
273.0093476
273.0049721
272.9923159
270.4663092
276.849441
273.0205405
272.9983508
273.0111997
272.9946978
272.9981349
272.9964857
273.0053401
272.9913018
272.9945619
273.0087946
273.0124716
272.9973872
272.9892365
273.0000208
273.013371
273.0133848
273.0037926
272.9894169
271.5354387
273.9266199
273.3363151
273.0174246
273.4914357
273.0238857
273.5004088
273.032128
273.3756351
273.0106977
273.1908811
273.0123083
273.0926703
272.9942725
272.9985096
272.9788178
272.9969462
272.995787
272.997511
272.9920831
271.8257338
263.2381861
290.1116441
267.0539778
293.3980184
271.812243
293.7155867
274.6780326
290.8609481
274.3198612
285.9514704
271.698387
280.630548
268.727958
276.0562405
266.5246726
273.5414335
266.0971834
273.6795022
267.6432868
275.8202384
290.3135834
273.4036789
273.024015
273.0253534
273.0298932
273.0374949
273.0256234
273.0223379
273.0220461
273.0200296
273.015501
273.0063006
272.9903782
272.9773205
272.9767226
272.9863295
272.9979065
273.0008354
272.9163544
264.4415885
290.4415879
273.4088424
273.0140769
273.0154924
273.0220437
273.0252594
273.0181292
273.0191016
273.0208051
273.0155924
273.0054982
272.9988828
272.9902974
272.9807037
272.977396
272.9804317
272.9857465
272.9877567
272.9069997
264.3442466
290.3438262
273.4168335
273.0146057
273.0153794
273.0193386
273.0184995
273.0203956
273.0246258
273.0240137
273.0156897
272.9993093
272.9960254
272.9954758
272.9912467
272.9854071
272.981716
272.9813209
272.9834307
272.9111026
263.9722855
290.6276713
273.4319315
273.0191331
273.0177714
273.0147771
273.0136787
273.0261423
273.0284861
273.0199298
273.0104915
272.9948345
272.9882367
272.9934989
272.9967627
272.9906034
272.9825102
272.9787648
272.982573
272.9204551
263.7597275
290.3019084
273.4049484
273.0187203
273.0171924
273.0107978
273.0142232
273.0259711
273.0247592
273.0116359
273.0082146
272.982678
272.9852431
272.9881548
272.9934933
272.9900406
272.9837711
272.9796971
272.9847682
272.9344646
263.1786175
290.5127064
273.3884819
273.0124865
273.0138051
273.010038
273.0200922
273.0232462
273.0152858
273.0034042
272.9963525
272.3587628
272.9937849
272.9843069
272.9832062
272.9858772
272.985369
272.9833779
272.9881753
272.9443298
263.0524395
289.7810871
273.3421297
273.007242
273.0132858
273.0126437
273.0248571
273.0221055
273.0086756
272.9926412
272.5499194
261.436671
272.752367
272.9795295
272.9760543
272.985859
272.9893191
272.987697
272.9902406
272.9559574
262.5383155
289.8653048
273.3384432
273.0073374
273.0147459
273.0146799
273.0225618
273.0210674
273.0062457
272.968032
271.4287161
251.7782476
272.3970925
272.975057
272.977986
272.991551
272.9958194
272.9913979
272.9910232
272.960074
262.6998189
288.6761944
273.3056523
273.0082333
273.0130854
273.0114545
273.0135004
273.01711
273.0096582
273.0016123
272.8295489
267.3553384
272.9229802
272.9872474
272.9856208
272.9952045
272.999658
272.9940132
272.9924403
272.969589
262.5193169
288.539923
273.319502
273.0085285
273.0070507
273.0045092
273.0050018
273.0110133
273.013145
273.0122756
273.0073028
272.7506467
273.0008948
272.9949781
272.9931045
272.9960639
272.9985819
272.9950546
272.9951086
272.9726876
263.1286257
286.7486225
273.2628561
273.0018225
272.9988894
273.0013002
273.0026442
273.0041593
273.0112231
273.0159083
273.0076709
272.9909098
272.9976404
273.0009103
273.000633
272.9976522
272.9961469
272.9959036
272.9989725
272.9826693
263.3492306
286.5584134
273.2481148
272.9956556
272.9932505
273.0032935
273.0063977
272.9986498
273.0038609
273.0132652
273.0061279
272.9939982
272.9947771
273.0034196
273.0068547
273.0016002
272.9960314
272.9971654
273.0026092
272.9834828
264.3826432
284.032118
273.1664266
272.9935821
272.9926202
273.0063169
273.0097314
272.9956487
272.9955594
273.0064878
273.0085381
272.9986717
272.9926849
273.0025226
273.0119108
273.0077315
272.9989706
272.9990592
273.0047377
272.9898344
264.9036435
283.9361488
273.1547598
272.9958107
272.9958232
273.0031903
273.0058791
272.996662
272.9926555
273.0012782
273.0127612
273.0067533
272.992659
272.9984795
273.0127187
273.0126417
273.0036756
273.0013299
273.0045214
272.9855886
266.2366661
280.897098
273.0865251
272.9976389
272.9996088
272.994522
272.9964375
272.997665
272.9958942
273.0023629
273.0149587
273.0108683
272.994464
272.9941417
273.0091177
273.0133602
273.0079349
273.0043657
273.0034037
272.9884108
266.9217206
281.048069
273.0900602
273.0005184
273.0013748
272.9879728
272.9889212
272.9985901
273.0033065
273.0070665
273.0105025
273.0089052
272.9998157
272.9943068
273.0018048
273.0090772
273.0106687
273.008208
273.0027353
272.9839625
268.3682314
277.5471135
273.0370578
273.0007588
273.0014416
272.9878316
272.988206
272.9993087
273.0079425
273.0057185
272.9995947
273.0033831
273.0079857
273.0002413
272.9951132
273.001992
273.0124168
273.0120764
273.0031569
272.9886882
269.0865198
278.1177146
273.0428248
273.0007625
273.0116839
272.9926725
273.0093697
273.0029492
273.017437
272.9974604
272.9897965
272.9981394
273.0150525
273.0083219
272.9927942
272.9963275
273.0124431
273.0143648
273.0039384
272.9890708
270.5571451
274.2745226
273.4930004
273.018194
273.7263344
273.025855
273.7579864
273.0600321
273.5336513
273.022553
273.2272339
273.0021052
273.0801194
272.9962481
272.9724592
272.9660224
272.9577779
272.9919693
272.9767962
272.9923064
271.2435768
261.8847811
293.8277004
266.8385867
298.4762122
273.088748
298.9063257
276.9188593
294.5680456
276.3788898
287.4986584
272.8895164
280.0482166
268.8355872
273.6716846
265.73664
270.092219
265.4152738
270.4760935
268.0637511
273.5995089
297.6608861
273.7679487
273.0419651
273.0359944
273.0204199
273.046048
273.0500324
273.0124814
272.9961831
273.0240685
273.0306897
272.9929403
272.9687529
272.9822392
272.9918833
272.9769747
272.9807645
272.9953448
272.9186593
258.8033147
297.9585129
273.7660907
273.0191501
273.0145881
273.026034
273.0382674
273.0237622
273.0148399
273.0157505
273.0210101
273.013043
272.9911261
272.974844
272.9749882
272.979407
272.9774978
272.9784981
272.9849552
272.9093937
258.5429326
297.8749366
273.7718297
273.0133686
273.0120153
273.0335449
273.0295151
273.011067
273.0307578
273.0386778
273.0166662
272.9987694
272.9976671
272.9911096
272.9774258
272.9752535
272.9834081
272.9815794
272.9819227
272.920694
257.8433465
298.5400286
273.8119085
273.0251402
273.0257237
273.0285975
273.0130843
273.0145581
273.0464216
273.0438562
272.9983044
272.9680022
273.0027213
273.0039712
272.9812859
272.9738198
272.9847872
272.9805669
272.9786588
272.9383098
257.1891094
298.2102656
273.7748015
273.0333135
273.0364636
273.0177471
273.0026941
273.0227129
273.0518907
273.0365623
272.9745783
272.4801549
273.0007632
273.0062783
272.9817401
272.9730801
272.9856181
272.9800929
272.9777945
272.9685542
256.1336286
298.7800069
273.7741278
273.031673
273.0337275
273.0115025
273.0062081
273.0317662
273.047015
273.0167941
272.6651772
263.5208364
272.9358041
273.0042961
272.9771019
272.9682885
272.9870149
272.9829763
272.9809292
272.9936381
255.5178215
297.8468861
273.7105312
273.0204919
273.023419
273.011326
273.0154197
273.0367366
273.0410037
272.8120709
266.6685774
210.3130411
269.6824789
272.94546
272.9657057
272.9617064
272.9907577
272.9902879
272.986346
273.0228302
254.7163729
298.1597952
273.7105818
273.0142771
273.0139478
273.0122953
273.0190218
273.03495
273.0346609
272.4541033
261.3035336
223.520043
266.0265088
272.7344126
272.9544993
272.9608031
272.9985153
272.998438
272.9915744
273.0370777
254.6503374
296.4975129
273.6427247
273.0142521
273.0099106
273.0117966
273.0149522
273.0259352
273.034288
272.9098743
269.5656071
246.2105679
271.7317307
272.9735294
272.9617664
272.9670007
273.0048721
273.0023481
272.9949981
273.0518255
254.5600391
296.3881444
273.6632903
273.0209835
273.0099023
273.0091083
273.0088866
273.013782
273.0255475
273.0202139
272.8761908
268.932009
272.979787
273.0047884
272.9800891
272.9782139
273.0044508
272.9995424
272.9958679
273.0504553
255.3571868
293.7379819
273.5397299
273.0176221
273.0091056
273.0061147
273.0057743
273.0073042
273.019865
273.0241704
273.0009456
272.7576609
273.0004761
273.0093418
272.9985426
272.991728
272.9996557
272.9931123
272.9951487
273.0519931
256.0580324
293.438755
273.495768
273.0079381
273.0079116
273.0050424
273.0069619
273.0099995
273.0176156
273.0146719
272.9976533
272.9902853
273.0039702
273.0076188
273.0085516
273.0035658
272.9981676
272.9885431
272.994177
273.0369148
257.6885295
289.5927614
273.3293964
272.9975201
273.0086651
273.0047838
273.0055748
273.0156836
273.0141213
273.0000591
272.9970809
273.0090992
273.0087345
272.9981854
273.0059824
273.0114682
273.0017163
272.9891656
272.9942079
273.0297746
258.9738371
289.3149923
273.3029876
272.994921
273.0117925
273.0035419
272.9998661
273.01605
273.009044
272.9885877
273.0040545
273.0276095
273.0087684
272.981709
272.9947831
273.0170183
273.0093838
272.9950603
272.9952371
273.0082697
261.1615917
284.7805687
273.169276
272.9955508
273.0142739
273.0015189
272.9944677
273.0067903
273.0004012
272.987238
273.0121265
273.0337557
273.006004
272.975999
272.9876718
273.0152954
273.014319
273.002494
272.9971172
273.0036038
262.6736012
284.8769016
273.1858687
273.0039946
273.0074798
272.9997037
272.9972043
272.9950259
272.9952889
273.0011873
273.0166657
273.0199568
273.0031672
272.9878718
272.9934363
273.0088632
273.0135026
273.0079843
273.000055
272.991198
264.9968711
279.679713
273.0876868
273.0067458
272.9925278
272.997085
273.0057119
272.9914037
272.9980298
273.0139239
273.0105054
272.9980343
273.0037715
273.0102338
273.0055438
273.000769
273.0069949
273.0102677
273.0040918
272.9969128
266.4982974
280.4927561
273.1006208
273.0015168
273.0113512
272.9934721
273.0477278
273.0040388
273.0242605
273.019856
273.0037662
272.9765923
273.0009317
273.030113
273.0157854
272.9924056
272.9980005
273.0099398
273.0080917
272.9971068
268.7583726
274.8375516
273.8086236
273.0238887
274.2178814
273.0803587
274.3197747
273.2208921
273.8699206
273.1507436
273.3626031
272.9977262
273.0779546
272.9854718
272.9641611
272.9489258
272.924595
273.010467
272.9781881
273.0167379
270.1813295
260.1874189
299.8620769
267.431487
306.7618267
277.3443395
307.5930452
283.7943402
300.9922802
281.9082967
290.5644527
275.0709229
280.2935312
267.9517719
271.8099922
262.1496024
267.1095737
260.5399044
268.7585056
264.3779328
274.1935949
306.175646
274.2741957
273.0761764
273.0609355
272.9969222
273.0160622
273.0716033
273.052555
273.0148663
273.005628
272.9950497
272.9974946
272.9961179
272.9916494
272.9854445
272.9712811
272.9587273
272.9787562
272.9370302
252.5612069
306.8227581
274.2785163
273.0443223
273.0216555
273.0278718
273.0368074
273.0371024
273.019897
273.0045971
273.0097703
273.0000536
272.9838792
272.9756576
272.9765643
272.9770255
272.9721681
272.967087
272.9762882
272.9337144
252.0777881
306.8946331
274.2754471
273.0300052
273.0043042
273.0524492
273.0493808
273.0104496
273.0025596
272.9962072
273.0191084
273.0166779
272.9765927