/*--------------------------------*- C++ -*----------------------------------*\
| =========                 |                                                 |
| \\      /  F ield         | OpenFOAM: The Open Source CFD Toolbox           |
|  \\    /   O peration     | Version:  5.x                                   |
|   \\  /    A nd           | Web:      www.OpenFOAM.org                      |
|    \\/     M anipulation  |                                                 |
\*---------------------------------------------------------------------------*/
FoamFile
{
    version     2.0;
    format      ascii;
    class       volVectorField;
    location    "10";
    object      U;
}
// * * * * * * * * * * * * * * * * * * * * * * * * * * * * * * * * * * * * * //

dimensions      [0 1 -1 0 0 0 0];

internalField   nonuniform List<vector> 
30538
(
(0.04878379903 -0.0005945704199 -0.009756817573)
(0.05074470516 -0.002862398805 0.003640830276)
(0.03510226553 0.002337397784 -0.007840087173)
(0.04366329219 0.001729259827 0.002824774384)
(0.02091261791 0.005443063198 -0.007969896927)
(0.02460972267 0.002316890159 -0.002963015675)
(0.0003053993182 0.005357551215 -0.005460652309)
(0.01311972403 0.001497274398 -0.001332853851)
(-0.003042391585 0.002834343652 -0.002688288205)
(0.00809346522 -0.001435697237 -0.004214939761)
(-0.02001926538 0.00193165537 -0.004931385354)
(-0.01104634329 -0.0008949312871 -0.006616018318)
(-0.03968494265 0.0007990307667 -0.006423195147)
(-0.02414095805 -0.003565972272 -0.007919698209)
(-0.04228335822 -0.0007899349426 -0.004163837217)
(-0.01711086023 -0.002302759467 -0.004120985157)
(-0.02459455514 0.0004583067372 -0.003677710398)
(-0.0155418992 -0.0008033579129 -0.005606382769)
(-0.02624364657 0.002870039626 -0.002672667054)
(-0.02197072006 0.0005899636202 -0.001342788961)
(0.04638751585 -0.002900651175 -0.008798154796)
(0.05282180142 -0.006288789876 0.005602925994)
(0.03825356709 0.001912315971 -0.007552047536)
(0.04589299742 0.002910264439 0.002310015064)
(0.02124768952 0.006610945801 -0.008187064103)
(0.02456097789 0.003910871022 -0.002720927582)
(-0.0003225269282 0.005611018109 -0.00519781904)
(0.01143254662 0.00406492653 -0.0009505554416)
(-0.005140799722 -0.0009056263125 -0.002486408451)
(0.007546843514 -0.002876530018 -0.004182465312)
(-0.01968020732 -0.006751476542 -0.005885743477)
(-0.01185647045 -0.003744112741 -0.006951065554)
(-0.04159291046 -0.008908146304 -0.006113723766)
(-0.02528425368 -0.009122508792 -0.006959374412)
(-0.04131129943 -0.00883939703 -0.003933059734)
(-0.01632653727 -0.004811332001 -0.004468814538)
(-0.02343305007 -0.00467279485 -0.004188794436)
(-0.01379574365 -0.003520589337 -0.006331522086)
(-0.02531162715 -0.0003349687864 -0.004024154465)
(-0.02449171096 0.001302491739 -0.002201143725)
(0.04251393649 0.0004913255026 -0.007741302865)
(0.05406931838 -0.006184581204 0.008114204977)
(0.04152988724 0.006051264915 -0.007368538715)
(0.04696905063 0.001534271233 0.001402244771)
(0.02154704655 0.01037270159 -0.008300507766)
(0.02390523917 0.003223091744 -0.002376925435)
(0.0003776451682 0.01242929062 -0.005105417733)
(0.008596853569 0.006966367529 -0.001586342794)
(-0.007998893157 0.008999144164 -0.002947336971)
(0.004108231356 -0.001802097814 -0.005085432723)
(-0.02068678385 -0.003378618487 -0.007324316625)
(-0.01251138479 -0.008489260507 -0.007669452635)
(-0.043535762 -0.008064502579 -0.005673230732)
(-0.02411799609 -0.01283710343 -0.006117168502)
(-0.03916754498 -0.005388718732 -0.004031652409)
(-0.01427353174 -0.00587525091 -0.005506604738)
(-0.02353293193 -0.003322118738 -0.004670781237)
(-0.01248657412 -0.01069367523 -0.006375769384)
(-0.02278550539 -0.005733413592 -0.004299227943)
(-0.02301734937 -0.005069339646 -0.002786523474)
(0.04260353197 0.005409117099 -0.006878859148)
(0.05658215147 -0.002235241533 0.009152200014)
(0.04400448642 0.007365033071 -0.007138450729)
(0.04878316746 -0.00118450675 0.001093113374)
(0.02258902087 0.007269473791 -0.00769720877)
(0.02596220896 0.001006388528 -0.001200117237)
(0.002247541045 0.009043730708 -0.005232819241)
(0.009108128339 0.006715463747 -0.002365516456)
(-0.01146840616 0.007232810684 -0.004621500841)
(-0.001047364488 -0.001850290493 -0.005265973266)
(-0.02447312491 -0.01174231949 -0.008621544001)
(-0.01513764243 -0.01360469137 -0.007323414598)
(-0.04466691815 -0.01602380917 -0.005404423025)
(-0.02341799077 -0.01414299027 -0.005197103518)
(-0.03639831201 -0.008475410476 -0.004879120872)
(-0.01485890604 -0.005966317861 -0.006774560751)
(-0.02685460344 -0.007082631739 -0.005184095185)
(-0.01548985452 -0.01509842121 -0.005023359338)
(-0.02114356053 -0.01448907 -0.002809494893)
(-0.01742467996 -0.009613726404 -0.002026168069)
(0.04503148202 0.01279435015 -0.007398011804)
(0.05532914379 0.002484128523 0.008177761341)
(0.04262469745 0.01319663048 -0.007681511763)
(0.04669378639 -0.002335264259 0.001069113286)
(0.02328919034 0.01146429077 -0.007064313466)
(0.02508455038 0.0008757397538 -0.0005396054019)
(0.004367652929 0.01328976895 -0.005697041474)
(0.007449342076 0.004123771759 -0.004898746587)
(-0.01416447674 0.01174066907 -0.006665317771)
(-0.009150818279 -0.004208307655 -0.00640927335)
(-0.02910139982 -0.008396370004 -0.009078974786)
(-0.01550171727 -0.01670609311 -0.007206268485)
(-0.04396404515 -0.0106571686 -0.005180642076)
(-0.01880598571 -0.01340111058 -0.005242998313)
(-0.03346690707 -0.004744917652 -0.005599665804)
(-0.01320977848 -0.009220518839 -0.008339349358)
(-0.03009714324 -0.005000477192 -0.005307612472)
(-0.01771091173 -0.01579672263 -0.003404821327)
(-0.01863463011 -0.01211097788 -1.724002457e-05)
(-0.00664065789 -0.01201035241 -0.0006123470116)
(0.05361779948 0.01573642293 -0.00817743441)
(0.05703238912 0.003237359089 0.004893592539)
(0.04084773049 0.01382155525 -0.007849688232)
(0.04732197266 -0.004115343774 0.00189123661)
(0.02500036344 0.01104605569 -0.0060908104)
(0.02717536265 -0.0003694419164 0.0005808535254)
(0.004469287138 0.01016944611 -0.006520521153)
(0.008196633076 -0.002646614774 -0.00593052209)
(-0.01751102905 0.003326382297 -0.009166152012)
(-0.01506464831 -0.009267891673 -0.00540495429)
(-0.03339075515 -0.01208743925 -0.009676545004)
(-0.0167381145 -0.01567428762 -0.005923831781)
(-0.04232696404 -0.009033502439 -0.006358870917)
(-0.01933463564 -0.01072179332 -0.005443412187)
(-0.03345673244 -0.008145494894 -0.006252428098)
(-0.01499802761 -0.01413677988 -0.008571792729)
(-0.03155539247 -0.007999009288 -0.005839213342)
(-0.0205031683 -0.009903931942 -0.002474936425)
(-0.01824240801 -0.003707669602 0.001552004684)
(-0.001059414432 -0.005872811094 0.0007819966251)
(0.05849583152 0.01472717088 -0.009550577509)
(0.05424908186 -0.003479655135 0.002228367022)
(0.03774892839 0.01403004695 -0.007955872156)
(0.04446310859 -0.005237258695 0.002926872892)
(0.02605891622 0.015043258 -0.005440552924)
(0.02443117354 -0.0009121932818 0.0001379336812)
(0.00268862041 0.01421955488 -0.00663947018)
(0.002829185943 -0.007984220398 -0.007307886595)
(-0.01897850437 0.002397199495 -0.009548793484)
(-0.01985270687 -0.01313166821 -0.005652565664)
(-0.03370143934 -0.00303463744 -0.009279291958)
(-0.0133556204 -0.01090146706 -0.006239776016)
(-0.04045067403 0.002964245807 -0.00760487917)
(-0.01829646128 -0.006693234617 -0.006614540724)
(-0.03583174348 -0.003223209124 -0.005418127173)
(-0.01314247876 -0.01761351916 -0.007742487417)
(-0.02703418972 -0.005151594938 -0.005503463154)
(-0.01466137135 -0.004110699029 -0.003688445247)
(-0.01560374005 0.01069543841 0.0008635332075)
(-0.0004910495946 0.0005558416386 0.0004787778554)
(0.06148706832 0.009708777429 -0.009044843436)
(0.05674518559 -0.01605750535 0.001405832379)
(0.04004110216 0.008964080507 -0.006473354927)
(0.04772380086 -0.01016434541 0.004078511677)
(0.02829744938 0.01219905358 -0.005047768078)
(0.02652464173 -0.006977732869 -0.0003583614245)
(-0.0006255844776 0.01156754078 -0.007129725124)
(9.187217398e-05 -0.01384464031 -0.005713134153)
(-0.02133944518 -0.002105779622 -0.01022229595)
(-0.01872604229 -0.01568734033 -0.004393522332)
(-0.03186756624 0.003229174542 -0.01242863943)
(-0.01256385312 -0.007951495545 -0.006702961566)
(-0.03931100288 0.006265025515 -0.01089327383)
(-0.02381705107 -0.004587361986 -0.007751482139)
(-0.04112285456 -7.815167673e-05 -0.005282457888)
(-0.01640375314 -0.01528441671 -0.005639335684)
(-0.02197399393 -0.004178487323 -0.005517694766)
(-0.00921440384 -0.002141294546 -0.005600176702)
(-0.0147100816 0.01430923178 -0.002553221285)
(-0.009604986891 0.004548203526 -0.0007958136911)
(0.05374178937 0.006129761884 -0.008185943633)
(0.05392689662 -0.02596175197 0.003690548522)
(0.04228900541 0.006204346957 -0.005371615709)
(0.04640801127 -0.01350578729 0.004147171419)
(0.02858960172 0.011635502 -0.005505719744)
(0.02389440688 -0.0129394146 -0.002413029037)
(-0.002254308519 0.01190983928 -0.006795733078)
(-0.006522278692 -0.01507750471 -0.00497631192)
(-0.02048949944 0.002756301781 -0.007033462821)
(-0.01591797688 -0.01329006452 -0.00483600947)
(-0.02828821154 0.01357452956 -0.009167056272)
(-0.01131826378 -0.006768820478 -0.007429450888)
(-0.03801765655 0.009005282369 -0.01029611594)
(-0.02288949589 -0.00564721611 -0.009127463044)
(-0.04336935826 0.009954142971 -0.004759911606)
(-0.01603479294 -0.005721990901 -0.004509210022)
(-0.01778369995 0.00298774446 -0.004426735912)
(-0.001505624558 -0.006460089675 -0.007129236175)
(-0.01062618199 0.009292920273 -0.005006705806)
(-0.01433835134 -0.0006454149113 -0.002672217933)
(0.04706533869 0.007170758291 -0.005640898159)
(0.05701837601 -0.02994553508 0.006628546256)
(0.04921106068 0.005048232299 -0.003872015896)
(0.05118902302 -0.01881373117 0.003588560144)
(0.02898464985 0.007084283892 -0.006261496927)
(0.02662496537 -0.0234274651 -0.002863246197)
(-0.00225783022 0.004585580279 -0.007272669938)
(-0.006039991811 -0.02104376179 -0.002612817623)
(-0.02030277539 0.003980596081 -0.006123606183)
(-0.01092083053 -0.01514077014 -0.004562478125)
(-0.02733860758 0.01388283708 -0.01127652053)
(-0.01586950073 -0.01206082827 -0.007221697902)
(-0.03844495837 0.003241991167 -0.01041342086)
(-0.02326179046 -0.01137394207 -0.009239300331)
(-0.04112647975 0.01419699689 -0.006971497706)
(-0.02132898026 0.004021977678 -0.005094742677)
(-0.0225572279 0.00784121975 -0.004290978657)
(-0.004747465006 -0.01199522224 -0.006150977825)
(-0.0104273332 -0.002755714784 -0.005573894004)
(-0.01620564326 -0.008250085662 -0.002876200584)
(0.03722432978 0.01274002127 -0.004273515532)
(0.05273078737 -0.02402150658 0.008776078418)
(0.05051968126 0.008839891782 -0.004117916779)
(0.04749030462 -0.02052271302 0.002000567057)
(0.02561039708 0.005898921462 -0.006482247811)
(0.022080454 -0.02850585306 -0.00339155629)
(-0.0007172408145 -0.001173298552 -0.006709419993)
(-0.006563910188 -0.02453760788 -0.002618910207)
(-0.01658346642 0.00750014677 -0.003575637822)
(-0.008747848279 -0.01456646781 -0.006227137587)
(-0.02618131496 0.01394552387 -0.009814180174)
(-0.01886782097 -0.01367245688 -0.006823061074)
(-0.03744859017 0.003310440186 -0.006418315624)
(-0.01528331632 -0.01295499315 -0.008700812495)
(-0.03239162735 0.01667971724 -0.008472748925)
(-0.02059686915 0.007866778221 -0.007719678018)
(-0.02913050845 0.01334610007 -0.003953722227)
(-0.008975114193 -0.01255095143 -0.004107365816)
(-0.007881232066 -0.007044631776 -0.003072463057)
(-0.007058825021 -0.01368181512 -0.002201285409)
(0.03874380127 0.01968781517 -0.003290628312)
(0.05462259444 -0.01794843347 0.008346284197)
(0.05210293086 0.01031733584 -0.003966725329)
(0.04875969994 -0.0284236552 0.000944636581)
(0.0236880205 0.00177115254 -0.005623259542)
(0.02156545073 -0.0367555227 -0.001581294421)
(0.0003440262363 -0.009102338941 -0.006073316586)
(0.0004508153179 -0.03496650977 -0.001535203023)
(-0.01357392644 0.004097376195 -0.003758920399)
(-0.006207492493 -0.02360794713 -0.005995890612)
(-0.02677412812 0.007480913461 -0.01096217516)
(-0.02342024804 -0.01894570688 -0.005898168973)
(-0.03783977553 0.005740620935 -0.004489647366)
(-0.01398449135 -0.01450734566 -0.006743065462)
(-0.02629417597 0.009877764502 -0.01017293558)
(-0.02377555286 -0.0008359854103 -0.009783950924)
(-0.03702543061 0.01206677439 -0.004762072353)
(-0.01911129985 -0.007239548945 -0.002055527327)
(-0.01118671953 -0.001597359526 -0.000683584292)
(-0.001966346456 -0.01129557985 -0.0005874786791)
(0.03811108947 0.0225598637 -0.003922279537)
(0.04657641049 -0.01344250247 0.006135600751)
(0.04360242107 0.00919730455 -0.004344771832)
(0.04106226362 -0.03432686051 -4.330244451e-05)
(0.02006590696 -0.002280779618 -0.005104805336)
(0.01434250803 -0.03841277278 -0.001171078335)
(0.0003794257002 -0.01059953327 -0.004669068125)
(0.003140102621 -0.03853128681 -0.002729070721)
(-0.008841274223 -0.0009744762324 -0.003195427123)
(-0.0062094977 -0.02933472103 -0.0062840627)
(-0.02294469302 0.0002856836991 -0.008948546047)
(-0.02016075815 -0.01955016308 -0.006787962727)
(-0.03421800715 0.01263477069 -0.002948064236)
(-0.01252302407 -0.01031389931 -0.005170166054)
(-0.02265243555 0.002460008997 -0.00836874564)
(-0.01904754884 -0.01431804956 -0.0100116501)
(-0.03376202956 0.009228878173 -0.004951273453)
(-0.01859108472 0.0006143294169 -0.002188875606)
(-0.01071124597 0.01211272385 0.0004385640012)
(0.001689155075 -0.005009651345 -0.0002900757753)
(0.04493657423 0.02277165098 -0.003866530491)
(0.04560689144 -0.02035517006 0.003371633431)
(0.03783206533 0.004759487381 -0.003703980734)
(0.04026288632 -0.0455367287 0.0003775545148)
(0.02112421171 -0.008831283 -0.004809181233)
(0.01563912991 -0.04702141172 -0.0004241217031)
(7.819341147e-05 -0.01182540693 -0.003592737368)
(0.007604462008 -0.0468747579 -0.001790037126)
(-0.007355062502 -0.00968533633 -0.003436284501)
(-0.005153322741 -0.04104793714 -0.003781334714)
(-0.01993025707 -0.00884008281 -0.007745619246)
(-0.01475220903 -0.02776877202 -0.007604941025)
(-0.03125999448 0.01247756267 -0.005606464722)
(-0.02130206394 -0.01191630882 -0.004157103686)
(-0.02905934412 -0.004303598014 -0.00529059213)
(-0.0189240319 -0.02558808143 -0.0068517429)
(-0.02663074959 0.003201998447 -0.00521513858)
(-0.01698602284 0.003240227376 -0.003575416468)
(-0.01507202741 0.01969630557 -0.001517203842)
(-0.007375057776 -0.0004573265521 -0.0006352328092)
(0.03949815603 0.01823454103 -0.004118169877)
(0.034348307 -0.0278123871 0.001382277042)
(0.02627978171 0.0001662225326 -0.003646772277)
(0.03109863021 -0.04787097783 0.0001310009583)
(0.01936039262 -0.01485917236 -0.005813807059)
(0.0121661215 -0.05215449674 -0.002317605438)
(0.0002916364549 -0.01384284202 -0.002981978815)
(0.005001465931 -0.04852026875 -0.002435884626)
(-0.00496934178 -0.01569108386 -0.002399839727)
(-0.005450160915 -0.0442402698 -0.002800464008)
(-0.01362334378 -0.01466748653 -0.00495312034)
(-0.005166157107 -0.03443283477 -0.009449694427)
(-0.0229530559 0.003947876423 -0.008419502388)
(-0.02452024466 -0.01705396896 -0.005162755948)
(-0.03223943706 -0.003638686896 -0.00164381717)
(-0.01370046941 -0.02471863061 -0.003519469063)
(-0.0134824631 0.0009110511991 -0.004086028742)
(-0.006767095511 -0.0021820493 -0.005572260254)
(-0.01319288185 0.01523167374 -0.003608174363)
(-0.01233881795 -0.002511851951 -0.001747695581)
(0.03795916695 0.01615381443 -0.003150511515)
(0.03318366304 -0.03933023364 0.0006982467653)
(0.02407261038 -0.00114340234 -0.002697253969)
(0.02925699915 -0.05182677043 0.001199521176)
(0.01841546105 -0.02022893045 -0.00497714544)
(0.01630101547 -0.06509986608 -0.001597116209)
(0.002461562194 -0.02202978781 -0.00205550442)
(0.006635359847 -0.05852596708 -0.0004369959987)
(-0.004588583796 -0.02073421161 -0.001898854346)
(-0.004277233954 -0.0514648568 -0.00102042187)
(-0.01309009192 -0.01812842319 -0.003366845145)
(-0.001676533482 -0.04709986212 -0.007934506216)
(-0.01891489112 -0.01450990281 -0.01057765977)
(-0.02677722471 -0.03142671732 -0.005930287084)
(-0.03440295877 -0.002690827209 -0.0007216939712)
(-0.01571878119 -0.01956889634 -0.0008818771337)
(-0.0107636682 0.000861935152 -0.003115483004)
(-0.006720699004 -0.01296952553 -0.005345463098)
(-0.0151440938 0.001054892822 -0.004217392718)
(-0.01682309964 -0.00941808374 -0.001721525708)
(0.02297012912 0.01377357412 -0.002590970611)
(0.02244805731 -0.04180399392 0.0002906639438)
(0.01783342213 -0.0009522832285 -0.002621567726)
(0.01727229581 -0.04808874354 0.0006785717888)
(0.01025914297 -0.02214288794 -0.00354241063)
(0.01087864157 -0.06807996536 -0.00181994229)
(0.004786149354 -0.03032919226 -0.001238595134)
(0.006253371508 -0.06274577185 -0.0008796655458)
(-0.0001796897346 -0.0242518127 -0.002462679036)
(-0.003447221267 -0.0528282937 -0.003111886772)
(-0.01061399179 -0.01979205359 -0.002289266919)
(-0.002633435626 -0.05132734886 -0.00567037946)
(-0.0118216056 -0.03009518258 -0.008195429049)
(-0.01624018948 -0.04250880071 -0.006837400778)
(-0.02381743787 -0.004340093511 -0.001745114927)
(-0.0112033947 -0.01521572194 -0.001039437748)
(-0.008961593453 0.001381862037 -0.002032305265)
(-0.006534857506 -0.01967973237 -0.003911352661)
(-0.01053184267 -0.0091523587 -0.002150110175)
(-0.006957646052 -0.01447221575 -0.0009997903252)
(0.01811606868 0.01543074537 -0.001880644507)
(0.02293661477 -0.04346096878 0.0007760641268)
(0.01996921045 -0.0007349980851 -0.001665328068)
(0.01402216288 -0.05130813779 0.001379842126)
(0.004559254076 -0.0198959266 -0.0003596871272)
(0.0104653752 -0.0714426662 0.00133540679)
(0.006034949659 -0.0333411204 0.0005058478978)
(0.01116572886 -0.0707762396 0.001158631576)
(0.002212383681 -0.02999859668 -0.00341838964)
(-0.0009997022558 -0.06181227634 -0.003636325391)
(-0.01210929478 -0.02510976411 -0.001918633625)
(-0.00896530433 -0.05747720759 -0.001486886964)
(-0.01264575094 -0.03450588183 -0.003968731569)
(-0.008682576194 -0.05161816551 -0.004887324203)
(-0.01511328518 -0.01061204389 -0.003340665959)
(-0.01167078119 -0.01901596032 -0.001456622524)
(-0.01404475842 -0.0008666496097 -0.001304158882)
(-0.01409832232 -0.02152002134 -0.001556378754)
(-0.01127451964 -0.00739349848 0.0003407535398)
(-0.0006383735264 -0.01347293122 0.0004592068496)
(0.003173804757 0.01735016741 -0.001334462787)
(0.01105010395 -0.03578347071 -1.386754942e-06)
(0.01241320217 -0.002603755435 -0.001492950446)
(0.003418269756 -0.05683001944 -0.0003987894826)
(-0.003827727845 -0.01566015297 0.0004605347678)
(0.001343591308 -0.06187609505 0.0006902524727)
(0.00523753158 -0.02941714187 0.0007430927702)
(0.008883674089 -0.06565544671 -0.0003490937135)
(0.006183264445 -0.03657763586 -0.003896818734)
(0.0001665959983 -0.06809056978 -0.005706903871)
(-0.007532899502 -0.0333435961 -0.001604866465)
(-0.009319561329 -0.05956473308 0.0004260452079)
(-0.007696657518 -0.03009528386 -0.0001791608549)
(0.0004972574605 -0.04619313477 -0.00297017606)
(-0.0007825212392 -0.01812993444 -0.003162336651)
(-0.004345058956 -0.02819816318 -0.002493778768)
(-0.0106870232 -0.004484335737 -0.001109654324)
(-0.0110431526 -0.01779449825 -0.0001242652526)
(-0.004601817241 0.001813964614 0.002199253401)
(0.00740705996 -0.006469176474 0.0008960632937)
(0.005118038839 0.02324945865 -0.0003500086745)
(0.009774426528 -0.03513861057 0.0004724530003)
(0.005369267901 -0.004576739831 -0.0004258775626)
(0.005400617783 -0.06059436181 0.002019691443)
(0.001144447577 -0.01589071707 0.000594168914)
(0.0009221335306 -0.05610411397 0.001666724672)
(0.003138760078 -0.01916202785 0.001202768027)
(0.006311756665 -0.06895641198 0.0005700915887)
(0.000191515693 -0.04100143914 -0.001625475176)
(0.0011888963 -0.07890790825 -0.0003852553572)
(-0.006147084247 -0.04334649418 -0.000991823076)
(-0.006796638099 -0.05874187084 0.001560567419)
(-0.003098360312 -0.0207471186 0.001366023577)
(-0.0001004460483 -0.0424511063 -0.001295844019)
(-0.002272678226 -0.0209524785 -0.001722334949)
(-0.002125121988 -0.03767618914 -0.0004499122928)
(-0.006673479333 -0.01204360726 -0.0009979759666)
(-0.009908514749 -0.01330224016 0.0003419803024)
(-0.003308331749 0.01638865053 0.001887552677)
(0.002190749794 -0.002605766677 0.0001896163426)
(0.04176492503 0.00118377294 -0.007786808757)
(0.05256303884 0.0008409897908 -0.005965529981)
(0.03387673839 0.002821233403 -0.009142289162)
(0.04355851618 0.0006773250734 -0.001494897831)
(0.01313745385 0.004993014763 -0.0129193214)
(0.02801101791 0.002751112844 -0.006361893403)
(0.0024064185 0.005839450954 -0.01193095668)
(0.01686787694 0.002217817619 -0.002720853175)
(-0.006871400409 0.003207681071 -0.01112592439)
(0.005278756949 -0.001391392694 -0.009790232116)
(-0.02327565918 5.577839104e-05 -0.01960310086)
(-0.01287760675 -0.001554422584 -0.01548477181)
(-0.04147445629 0.001332640447 -0.02067324639)
(-0.02104180413 -0.001813339405 -0.01857440619)
(-0.03715375288 -0.0003776278935 -0.01333262935)
(-0.01648738908 -0.003025266639 -0.01111358223)
(-0.02654492751 -0.0005576675228 -0.007910729562)
(-0.01435378244 -0.002228349169 -0.01366860243)
(-0.02039370851 0.0002494805588 -0.005267444143)
(-0.01697091911 -0.001100118711 -0.00482716989)
(0.04327879455 0.0008997688094 -0.005585101188)
(0.05372186029 0.002166356751 -0.000684842082)
(0.03375874473 0.00273074965 -0.009012013245)
(0.04506393614 0.0001268229582 -0.003142793235)
(0.01457973808 0.005905293336 -0.01370024791)
(0.0286102262 0.004950387552 -0.006685485186)
(0.002001347584 0.006244494574 -0.01174750998)
(0.01506971756 0.003547066965 -0.00249227825)
(-0.00944756957 -0.001428022884 -0.00978884183)
(0.003104212034 -0.00460369242 -0.009741095724)
(-0.02343608713 -0.01136611512 -0.02092204287)
(-0.01200521377 -0.005799795242 -0.01651657982)
(-0.0416795702 -0.007581106772 -0.01934635393)
(-0.02228483077 -0.005796812633 -0.01631284999)
(-0.03799078216 -0.008653343871 -0.01224905255)
(-0.01665161559 -0.007571103122 -0.01219082192)
(-0.02597956961 -0.006626238094 -0.009551424837)
(-0.0137627002 -0.005070280374 -0.01563996729)
(-0.01955148609 -0.003520576126 -0.007647442084)
(-0.01647923221 -0.001505404732 -0.006452518163)
(0.04423718734 0.004199180019 -0.002375112926)
(0.05381038565 0.000573339827 0.005677807405)
(0.03246755884 0.006770660399 -0.008029640814)
(0.04572941019 -0.0006979849881 -0.004137197583)
(0.01656138158 0.01125712724 -0.01456820593)
(0.0282370919 0.006109520361 -0.006210320243)
(0.001400357835 0.01234185064 -0.01301095351)
(0.01149843741 0.004252221987 -0.002827077198)
(-0.01268040394 0.004932897624 -0.01276852811)
(-0.001642841222 -0.003918330533 -0.00990596971)
(-0.02422093869 -0.008574133548 -0.02698128656)
(-0.01017672342 -0.009228353174 -0.01684185227)
(-0.04153714132 -0.006725982315 -0.02022813888)
(-0.02182959327 -0.009517825739 -0.01322023422)
(-0.0384180622 -0.007200429616 -0.01263916389)
(-0.01509226638 -0.01031120751 -0.01394765691)
(-0.02474422813 -0.005236979822 -0.01172753354)
(-0.01218232421 -0.008237161051 -0.01621495295)
(-0.01776071971 -0.003426340808 -0.008126269543)
(-0.01378714619 -0.00474288373 -0.007064831392)
(0.04690914672 0.006119919814 -0.0008133430929)
(0.05555667396 -0.002106100425 0.009506860953)
(0.0330920529 0.006694349109 -0.006535045907)
(0.04806745687 -0.001705108573 -0.003446983638)
(0.01953111662 0.009575700317 -0.01329327792)
(0.02932068038 0.004516542613 -0.005082457423)
(0.000641324184 0.007897934375 -0.01251114265)
(0.009941586513 0.0004128863945 -0.006210474856)
(-0.01534029909 0.0001983215783 -0.01495780763)
(-0.006281595993 -0.00440142069 -0.01283402074)
(-0.0272887223 -0.01504081116 -0.02838180899)
(-0.0106676127 -0.01269661985 -0.01828347929)
(-0.04189922472 -0.01501594342 -0.01871873107)
(-0.02264405044 -0.01246824407 -0.01186365561)
(-0.03853641881 -0.01144969639 -0.01298675928)
(-0.01526148858 -0.01129624532 -0.01688035866)
(-0.02451831563 -0.008291619349 -0.0128599872)
(-0.01248697761 -0.00945739022 -0.01411905012)
(-0.01693328459 -0.006222106679 -0.004533675851)
(-0.01120262405 -0.005431620843 -0.005459946471)
(0.04728850401 0.01035863084 -0.001902684486)
(0.05426354727 -0.005717660968 0.006700858398)
(0.03298015814 0.01177851683 -0.007345580135)
(0.04757499953 -0.0007671269578 -0.002179709431)
(0.02111987031 0.01446751003 -0.01284592453)
(0.02698758025 0.004263042126 -0.003074626419)
(-0.001522535647 0.01081642714 -0.01549174611)
(0.006175142161 -0.002648473797 -0.009606903864)
(-0.01619356887 0.003099791669 -0.0247152937)
(-0.01223252964 -0.004520894874 -0.01333826888)
(-0.03021309995 -0.01039239329 -0.03686346051)
(-0.01009696455 -0.01407448855 -0.01647179818)
(-0.04142711338 -0.01243497304 -0.02343780336)
(-0.01930408473 -0.01387649883 -0.01133009)
(-0.03758519067 -0.007361643823 -0.01638232846)
(-0.01283738323 -0.01263597728 -0.01922494742)
(-0.02343552184 -0.006230880012 -0.01431386515)
(-0.01072236956 -0.01098937479 -0.01093195033)
(-0.0147114001 -0.003671701266 0.0005840240301)
(-0.006124400324 -0.006640007454 -0.002277416003)
(0.05025260728 0.01167555101 -0.005751672666)
(0.05674881794 -0.008192100347 -0.0011952875)
(0.03676217765 0.01325393759 -0.008760285482)
(0.04971614095 -0.000572630047 -0.0006051028686)
(0.0232809503 0.01410081729 -0.0103877239)
(0.02666253802 0.000871971543 -0.001754663847)
(-0.004280986142 0.008374256995 -0.01455423548)
(0.004623298455 -0.007246184632 -0.01438622524)
(-0.01680313381 -0.002148282351 -0.02661555283)
(-0.01561890967 -0.007861417722 -0.01578968177)
(-0.03415122639 -0.01243976181 -0.03312079509)
(-0.01208975792 -0.01390159982 -0.01589327386)
(-0.04179284745 -0.01364999705 -0.02314536161)
(-0.01909665013 -0.01337857524 -0.01419752413)
(-0.03763404676 -0.007827774043 -0.01667721757)
(-0.01447610262 -0.01308646889 -0.02003158942)
(-0.02333721822 -0.008397775632 -0.01406640829)
(-0.01066868725 -0.01049547659 -0.009440858755)
(-0.0136631273 -0.002034259153 0.00375762688)
(-0.004506422249 -0.00382882246 -0.0002164456061)
(0.04963194711 0.01315903527 -0.009419652515)
(0.05562482034 -0.01011667563 -0.008584766986)
(0.0386098199 0.01662268247 -0.01001177108)
(0.04788304562 -0.0009917127235 0.001084920997)
(0.02234427316 0.01701090126 -0.01028754675)
(0.02287537414 -0.002728064119 -0.0008094942884)
(-0.007316876889 0.01304085925 -0.01732681671)
(-0.001080543506 -0.007597263132 -0.01406816467)
(-0.01677096229 0.0004138125214 -0.03452210574)
(-0.01929082711 -0.01123016753 -0.01343059355)
(-0.03460228894 -0.008218700436 -0.04566364333)
(-0.01097120308 -0.0124104278 -0.01357316261)
(-0.04109272681 -0.005616485121 -0.03247823699)
(-0.01526392465 -0.0111343413 -0.01666214769)
(-0.03735619578 -0.001386463267 -0.01896921434)
(-0.01327271519 -0.01208444725 -0.01761459364)
(-0.02158453029 -0.004539126994 -0.01416830298)
(-0.006199902952 -0.01006515107 -0.01091881052)
(-0.009803226343 0.00289114239 0.001073543663)
(-0.002548451205 -0.002480614518 -0.0009571562774)
(0.05215492041 0.01237140471 -0.00998829966)
(0.05951107865 -0.01330787928 -0.008674080494)
(0.04352961982 0.01389285904 -0.008117264136)
(0.0496799236 -0.007771134762 0.002803727051)
(0.02232109491 0.01205943966 -0.008178012434)
(0.02379455825 -0.01187286691 -0.002742210554)
(-0.007839306658 0.0112082732 -0.01437107747)
(-0.004069218311 -0.009471411224 -0.01387068926)
(-0.01954884859 0.002702159657 -0.02782792143)
(-0.02146377011 -0.01413909781 -0.01637114877)
(-0.03508492137 0.00356405139 -0.0407182779)
(-0.01038650864 -0.01025853921 -0.01672829018)
(-0.04085667202 0.001193654154 -0.03194119998)
(-0.0162207951 -0.009397160251 -0.02056820224)
(-0.03825187512 0.001183983451 -0.01628935806)
(-0.01674850698 -0.009151753807 -0.01408251455)
(-0.02190949794 -0.002092465691 -0.01215052267)
(-0.005360005957 -0.008659762006 -0.01444470817)
(-0.008108876527 0.003192144237 -0.005128209684)
(-0.005314961527 -0.001448486252 -0.004444335471)
(0.04861680978 0.01265625694 -0.006533710236)
(0.05708852845 -0.01609292064 -0.00160027659)
(0.04281806165 0.01117537216 -0.005536903618)
(0.04626526115 -0.01442980549 0.003176044753)
(0.01974432426 0.009312666699 -0.009897638667)
(0.0222217809 -0.0177372302 -0.004536463508)
(-0.005746211081 0.0115666302 -0.01745987523)
(-0.00680847781 -0.009198713546 -0.008902556733)
(-0.02029202175 0.01057465458 -0.0271521823)
(-0.01857282357 -0.01365994347 -0.01060111806)
(-0.03188773284 0.01592218834 -0.04521032425)
(-0.01271200111 -0.007835447898 -0.01616837477)
(-0.04041446204 0.009935513108 -0.03679339877)
(-0.01539634032 -0.008500228292 -0.02131180413)
(-0.03712048077 0.006779627311 -0.0189714195)
(-0.01560468663 -0.004732238863 -0.01182812423)
(-0.0212544295 0.005374336292 -0.01185098231)
(-0.002391532292 -0.007527284028 -0.01642797876)
(-0.004519305625 0.003617649969 -0.01059120075)
(-0.004256511205 -0.004573008485 -0.007727152147)
(0.04929471444 0.01469763819 -0.001733048602)
(0.0588884889 -0.0203286112 0.008345463378)
(0.04506504952 0.00749536386 -0.001956270668)
(0.04800633263 -0.02292096851 0.002084280213)
(0.02030931032 0.00523433489 -0.009431044456)
(0.02529442681 -0.02535887776 -0.006674661395)
(-0.001959367829 0.004695036802 -0.01502880181)
(-0.0044822631 -0.01657327871 -0.007542318661)
(-0.02291432584 0.0105565914 -0.0148565827)
(-0.01770592552 -0.01784132677 -0.01252077458)
(-0.03097659316 0.01276477548 -0.03288115284)
(-0.01459117633 -0.01099513595 -0.01914194383)
(-0.04124174867 0.01060411397 -0.02750405989)
(-0.01858038818 -0.01064376901 -0.02106678419)
(-0.03551928211 0.007182014358 -0.01923167723)
(-0.01775471329 -0.002161724806 -0.0149619684)
(-0.02393797563 0.008735573192 -0.01115592345)
(-0.006545257608 -0.006318674075 -0.01507967545)
(-0.005890203277 0.0009588589578 -0.01044462169)
(-0.005074147238 -0.007346934154 -0.008077262286)
(0.04411562281 0.01729192355 0.001679485157)
(0.0525324726 -0.02085596877 0.01337029089)
(0.0413701551 0.008718645988 -0.002327698543)
(0.04432585865 -0.02555576805 -0.0006448218385)
(0.01831788993 0.007132448775 -0.01072162007)
(0.02177444159 -0.02615791877 -0.005930818028)
(0.0003025572722 0.001078899174 -0.01777070828)
(-0.002321308582 -0.0224984649 -0.005464545946)
(-0.02143443051 0.01199837199 -0.01517604229)
(-0.01699598692 -0.0173278745 -0.01135955288)
(-0.02703694033 0.01464199919 -0.03831676135)
(-0.01422855581 -0.01123353938 -0.0174697541)