/*--------------------------------*- C++ -*----------------------------------*\
| =========                 |                                                 |
| \\      /  F ield         | OpenFOAM: The Open Source CFD Toolbox           |
|  \\    /   O peration     | Version:  5.x                                   |
|   \\  /    A nd           | Web:      www.OpenFOAM.org                      |
|    \\/     M anipulation  |                                                 |
\*---------------------------------------------------------------------------*/
FoamFile
{
    version     2.0;
    format      ascii;
    class       volScalarField;
    location    "4.8";
    object      p;
}
// * * * * * * * * * * * * * * * * * * * * * * * * * * * * * * * * * * * * * //

dimensions      [1 -1 -2 0 0 0 0];

internalField   nonuniform List<scalar> 
30538
(
101294.3764
101282.5404
101275.6729
101270.7107
101272.1799
101276.992
101285.5555
101293.1581
101300.7474
101309.487
101321.3424
101333.1367
101343.1722
101349.7189
101352.2367
101346.136
101333.9194
101320.7861
101310.2455
101302.0876
101294.8698
101283.8774
101277.1913
101271.8625
101272.4307
101276.1275
101283.8119
101291.5444
101300.0713
101309.4149
101321.0339
101332.292
101341.6033
101347.274
101348.9665
101343.0141
101332.0034
101320.2346
101310.6312
101302.5354
101295.7418
101286.189
101279.9045
101274.1332
101273.3412
101274.9944
101281.1859
101289.0299
101298.8255
101308.9126
101319.9481
101330.2083
101338.6197
101343.3241
101343.9072
101338.2751
101329.0063
101319.2285
101311.0019
101303.1467
101296.863
101288.9837
101283.4525
101277.4579
101275.3669
101274.6811
101278.9747
101286.6241
101297.1536
101307.5684
101317.6633
101326.6379
101334.3404
101338.4314
101338.3404
101333.352
101325.9195
101318.122
101311.1828
101303.6662
101298.1211
101291.8222
101287.4425
101281.7278
101278.8126
101276.1498
101278.3178
101285.0075
101295.2132
101305.1662
101314.0287
101321.7851
101328.9151
101332.8941
101333.0578
101329.287
101323.5439
101317.1695
101311.0737
101303.937
101299.3808
101294.5483
101291.7393
101286.9423
101283.6428
101279.5749
101279.616
101284.3852
101293.1229
101302.0051
101309.7384
101316.4905
101322.885
101326.7628
101327.9176
101325.9315
101321.8443
101316.5326
101310.784
101303.9521
101300.6278
101297.3269
101296.343
101292.791
101289.3884
101284.3899
101282.5796
101284.9188
101291.3137
101298.848
101305.8763
101311.8169
101316.9088
101320.0384
101322.086
101322.1284
101319.7568
101315.3069
101309.7253
101303.4344
101301.8623
101300.3684
101301.2343
101299.0027
101295.5859
101290.123
101286.9556
101286.8583
101290.7845
101296.8799
101303.3946
101308.5037
101311.8355
101313.4015
101315.3079
101316.9228
101316.236
101312.7599
101307.8053
101302.5506
101303.0604
101303.602
101306.1332
101305.0682
101301.7305
101296.0196
101292.0419
101290.4281
101292.3953
101296.826
101302.4288
101306.4017
101307.7534
101307.1904
101308.1239
101310.3301
101311.0659
101308.9107
101305.2509
101301.4878
101304.1226
101306.7993
101310.5648
101310.5962
101307.7747
101302.329
101298.1324
101295.6159
101296.0744
101298.757
101302.7078
101305.1719
101304.8474
101302.3179
101301.5604
101303.097
101304.7985
101304.3645
101302.5402
101300.6149
101304.7984
101309.3216
101314.1538
101315.3218
101313.8098
101309.304
101305.3231
101302.1638
101301.1386
101301.4092
101302.8417
101303.7763
101302.6089
101299.1028
101296.6669
101296.5682
101298.4794
101299.788
101300.269
101300.0668
101304.9071
101310.7816
101316.5006
101319.2486
101319.7995
101316.9353
101313.3874
101309.4886
101306.4088
101303.7174
101302.4239
101301.8857
101300.654
101297.3167
101293.8321
101291.9606
101293.2829
101295.755
101298.1688
101299.5992
101304.4782
101310.9666
101317.6428
101322.1655
101325.1674
101324.4232
101321.36
101316.1987
101310.6852
101305.1523
101301.4448
101299.7341
101298.7194
101296.1023
101292.3097
101289.437
101289.8873
101292.5531
101296.2988
101299.0784
101303.7605
101310.3532
101317.9144
101323.9739
101329.0381
101330.297
101327.5925
101321.1415
101313.4654
101305.9136
101300.7151
101297.9009
101296.817
101294.7365
101291.4499
101288.4732
101288.2388
101290.4782
101294.5372
101298.3377
101303.136
101309.5559
101317.6387
101324.6291
101330.6548
101333.0536
101330.5396
101323.3731
101314.6619
101306.4761
101300.6981
101296.7874
101294.9153
101293.0175
101290.7905
101288.5684
101287.9065
101289.2342
101293.1278
101297.6569
101302.7463
101308.8783
101316.9413
101324.0591
101329.7326
101332.0583
101329.6015
101322.6649
101314.5493
101306.9795
101301.2226
101296.181
101293.0129
101291.176
101290.3264
101289.3673
101288.3857
101289.228
101292.702
101297.3584
101302.5452
101308.21
101315.5515
101321.9818
101326.3255
101327.4763
101325.0745
101319.4436
101313.2781
101307.2313
101301.7444
101295.8868
101291.6007
101289.7292
101290.521
101290.7975
101289.7724
101290.1709
101293.7966
101297.7779
101302.2593
101306.9745
101312.9072
101317.7974
101320.5949
101320.4351
101318.3678
101314.6332
101310.7927
101306.6359
101301.767
101296.023
101291.6618
101290.1698
101292.003
101292.9282
101291.7397
101292.2498
101295.5993
101298.4855
101301.6608
101304.9101
101308.7671
101311.8507
101313.1245
101312.202
101310.715
101309.0217
101307.3143
101304.8613
101301.1962
101296.7216
101293.6772
101293.1174
101294.7935
101295.4587
101294.3975
101294.7195
101297.5753
101299.2688
101300.7171
101301.7971
101303.3343
101304.3985
101304.6265
101304.1789
101303.3208
101302.8867
101302.6383
101301.7474
101300.3211
101298.6639
101297.2675
101297.2394
101298.1469
101298.3991
101297.6768
101298.191
101299.3719
101299.8287
101293.6464
101281.3873
101276.5593
101274.2658
101277.9594
101281.1617
101288.4296
101296.1508
101304.6253
101312.5711
101323.8128
101335.3283
101344.2728
101347.2833
101347.5355
101342.3569
101332.1278
101319.3813
101308.5297
101300.9602
101294.541
101283.2105
101278.2761
101275.147
101277.6338
101280.3305
101287.3888
101295.1482
101304.0276
101312.5171
101323.5808
101334.61
101343.2134
101346.0731
101345.3695
101339.6278
101329.9421
101318.7694
101309.2978
101301.9137
101295.9756
101286.2587
101281.3917
101276.9826
101277.854
101279.6527
101286.0178
101293.6104
101303.0329
101312.1581
101322.5693
101332.4663
101340.5237
101343.5199
101341.8345
101335.3537
101326.6121
101317.6676
101310.2217
101303.1949
101297.5402
101289.7741
101285.4054
101279.9078
101279.3566
101280.0127
101285.1577
101292.167
101301.9199
101311.1394
101320.3139
101328.4356
101336.004
101339.4494
101337.5594
101330.7349
101323.1775
101316.4519
101310.8099
101304.1766
101299.0035
101293.0994
101289.6084
101283.7931
101282.4297
101281.8356
101285.3023
101291.1664
101300.5749
101309.2396
101316.7131
101322.8592
101329.76
101333.787
101332.6152
101326.5294
101320.4198
101315.3133
101310.7283
101304.4759
101300.1806
101295.9506
101293.6424
101288.4517
101286.885
101285.0985
101286.5826
101290.7469
101299.1602
101306.7604
101312.651
101317.0458
101322.996
101326.937
101326.834
101322.6478
101318.2996
101314.2393
101309.9034
101303.9833
101301.1678
101298.51
101297.5848
101293.6871
101292.2583
101289.4456
101288.9166
101291.1043
101297.795
101304.1954
101308.8425
101312.1508
101316.5132
101319.4955
101320.0007
101318.2444
101315.8642
101312.3747
101307.8959
101302.6706
101302.1174
101301.0856
101301.6533
101299.3996
101298.2967
101294.6942
101292.3711
101292.4655
101297.2278
101302.5311
101306.4118
101308.7904
101311.4469
101312.4779
101312.7834
101312.9376
101312.3044
101309.3105
101304.985
101301.0021
101303.0677
101303.7673
101305.883
101305.2198
101304.4923
101300.3136
101296.3565
101294.9718
101298.1735
101302.3354
101305.3302
101306.7795
101307.3694
101306.2561
101305.8597
101307.0965
101307.6095
101305.2586
101301.5103
101299.3197
101303.9112
101306.4421
101310.0523
101310.8328
101310.6359
101306.2622
101301.2731
101298.9673
101300.9584
101303.6467
101305.4708
101305.3418
101304.2528
101301.4171
101300.198
101301.322
101302.2983
101300.9275
101298.5438
101298.2628
101304.4803
101308.7436
101313.8468
101315.8659
101316.4379
101312.406
101307.1694
101304.2903
101304.9494
101305.7684
101305.449
101303.6285
101301.4127
101298.0263
101296.1884
101296.3434
101297.1174
101297.083
101296.8825
101298.0632
101304.7057
101310.3844
101316.8618
101320.123
101321.6091
101318.5324
101313.9497
101310.579
101309.3136
101307.4945
101304.748
101301.4739
101298.9168
101295.9845
101293.7175
101292.5468
101292.7895
101294.1626
101296.293
101298.5543
101304.6255
101311.2423
101318.8104
101323.1957
101325.618
101324.0764
101320.8311
101316.7509
101312.951
101308.1578
101303.2682
101299.2704
101296.9754
101294.7607
101292.1099
101289.7809
101289.6316
101292.1322
101296.2881
101299.2294
101304.3001
101311.3863
101319.5201
101324.9005
101328.1347
101328.3428
101326.4913
101321.6188
101315.189
101307.8324
101301.7727
101297.7737
101295.9756
101293.9897
101290.9243
101287.9679
101287.5749
101290.6972
101295.9477
101299.3802
101303.8884
101310.8528
101319.0003
101325.1242
101329.029
101330.5067
101329.5758
101324.0043
101315.6601
101306.9574
101300.8309
101297.2371
101295.6761
101293.4388
101290.0981
101287.1533
101286.7512
101289.7022
101295.1002
101298.9977
101303.402
101309.7511
101317.3678
101323.9008
101328.1988
101330.0531
101329.2431
101323.4312
101314.6594
101306.0772
101300.6292
101297.4708
101295.681
101293.0083
101289.9301
101287.6736
101287.2893
101289.5036
101293.9759
101298.2908
101302.8056
101308.16
101314.8127
101321.1537
101325.4662
101326.9003
101325.5368
101320.1174
101312.4903
101305.2935
101300.8969
101298.0573
101295.7635
101292.8729
101290.6966
101289.5889
101289.3697
101290.4656
101293.9242
101297.8847
101302.0856
101306.1428
101311.39
101316.6692
101320.5604
101321.0656
101319.2816
101314.931
101309.5454
101304.4082
101301.1144
101298.5429
101296.1054
101293.5513
101292.5975
101292.471
101292.2424
101292.6453
101294.8442
101298.0114
101301.2517
101303.8887
101307.3266
101310.8015
101313.5017
101313.374
101311.5957
101308.911
101306.1334
101303.1862
101300.9357
101298.7762
101297.0061
101295.4529
101295.3565
101295.6667
101295.4889
101295.4938
101296.6504
101298.6586
101300.3905
101301.3214
101302.5966
101303.9434
101304.8854
101304.7689
101303.6644
101302.9043
101302.1098
101301.0968
101300.3753
101299.6456
101298.642
101298.2518
101298.4262
101298.6413
101298.5188
101298.5667
101298.8276
101299.5372
101294.2891
101283.3147
101278.629
101277.5678
101286.5405
101288.1194
101292.1655
101300.8464
101312.3632
101318.8154
101324.9346
101333.9288
101342.1624
101342.9649
101339.2714
101333.0778
101325.367
101315.7865
101306.8663
101300.3617
101295.2671
101284.7812
101280.3524
101278.695
101285.3306
101287.1183
101292.2806
101300.8169
101311.6441
101318.3794
101324.9691
101333.486
101341.3953
101342.4188
101338.4286
101331.6075
101323.7713
101315.0498
101307.2887
101301.2066
101296.668
101287.2873
101283.9756
101281.0659
101284.8318
101287.0164
101293.2338
101300.772
101310.2548
101317.5257
101324.6109
101331.8292
101338.7901
101340.4205
101336.5303
101329.0503
101321.1447
101313.7286
101307.7138
101302.3729
101298.0938
101290.3326
101288.8113
101284.4787
101285.5574
101288.4524
101294.9629
101300.4273
101308.306
101316.3171
101323.5201
101328.6093
101333.9215
101336.3334
101333.405
101325.6956
101317.9842
101312.1083
101307.7859
101303.2687
101299.3188
101293.3985
101293.4123
101288.3029
101287.9185
101291.0945
101296.8251
101300.0128
101306.5904
101315.0098
101321.4321
101323.7903
101327.0763
101330.0688
101328.6148
101321.5888
101314.8584
101310.3588
101307.3251
101303.5268
101300.3066
101296.1905
101297.0264
101292.1206
101291.7814
101294.5145
101298.3608
101299.6047
101305.5232
101313.7271
101318.9264
101318.7056
101319.9189
101322.624
101322.113
101316.7256
101311.8019
101308.5662
101306.1932
101302.9462
101301.2453
101298.7672
101299.8698
101296.0695
101296.7282
101298.4147
101299.7463
101299.5869
101304.9804
101312.1794
101315.6779
101313.9707
101313.6505
101315.1628
101314.762
101311.1352
101308.419
101306.2216
101304.1721
101301.6452
101302.2391
101301.3031
101302.6559
101300.5902
101302.5153
101302.8969
101301.5391
101300.173
101304.8488
101310.7647
101312.9668
101310.4108
101308.9572
101308.7502
101307.6803
101305.5666
101304.6313
101303.1329
101301.3843
101299.9229
101303.0944
101303.5685
101305.8597
101305.7141
101308.7363
101308.0029
101303.8123
101301.318
101305.3338
101310.1561
101311.0546
101307.7443
101305.2468
101303.4116
101301.8411
101300.6158
101300.6468
101299.5702
101298.0342
101298.1264
101303.5951
101305.3865
101309.4881
101311.1224
101314.8789
101313.5171
101307.0411
101303.5007
101306.6359
101310.6313
101310.2478
101305.6879
101301.9352
101299.1449
101297.5623
101296.6974
101296.8069
101296.0274
101295.1421
101296.9134
101303.7757
101306.9025
101313.2316
101316.2074
101320.2461
101318.6295
101311.3451
101306.8629
101308.7395
101311.5363
101309.7008
101303.5095
101298.5885
101295.7156
101294.6315
101293.8157
101293.4475
101293.1298
101293.6341
101296.6784
101303.9175
101308.5766
101316.6409
101320.468
101323.9908
101322.5703
101316.2718
101311.4367
101311.4957
101312.0604
101308.4606
101300.958
101295.491
101293.1729
101292.5982
101291.5205
101290.5159
101291.0538
101293.5051
101297.3976
101304.2937
101310.4769
101319.2092
101323.3936
101326.0662
101324.9581
101321.0749
101316.6175
101314.3107
101311.6401
101306.2398
101298.5474
101293.6948
101291.8044
101291.0116
101289.1204
101287.8034
101289.6925
101294.3458
101298.5889
101304.8351
101312.167
101320.4116
101324.8124
101326.6992
101326.0766
101324.8315
101321.2611
101316.3919
101310.1866
101303.3509
101297.0824
101293.7787
101292.0206
101289.7494
101286.7538
101285.4445
101288.6389
101294.9982
101299.3191
101305.1779
101312.7154
101319.8035
101324.5882
101326.4219
101326.2947
101326.8269
101323.895
101317.1717
101308.0533
101300.7019
101296.8177
101295.5996
101293.3856
101289.1881
101285.2347
101284.2469
101287.9506
101294.7651
101299.2161
101304.8526
101311.5822
101317.3789
101322.671
101325.5477
101325.8605
101326.3349
101323.5049
101316.047
101305.8494
101299.1273
101297.4835
101297.8006
101295.1306
101289.6209
101285.4808
101285.0906
101288.3104
101293.9527
101298.4509
101303.7154
101309.0822
101313.7845
101319.241
101323.6195
101324.1904
101323.3541
101320.0901
101313.2057
101304.0747
101298.848
101298.6461
101299.4902
101296.5104
101291.0362
101287.6974
101288.2251
101290.2726
101293.4985
101297.7041
101302.1272
101305.9408
101309.7632
101314.4814
101319.6293
101320.0919
101318.0794
101314.5596
101309.3043
101302.8005
101299.3904
101299.6461
101300.0708
101297.3501
101293.1424
101291.2304
101292.4598
101293.4883
101294.1982
101297.5649
101300.7259
101303.0939
101305.9273
101308.8735
101313.3022
101313.8891
101311.3173
101308.0947
101305.2288
101301.935
101300.0888
101299.8975
101299.8686
101297.9467
101295.7382
101295.1637
101296.5383
101297.0481
101296.0995
101298.213
101299.8569
101300.9416
101301.9518
101303.0556
101304.993
101305.1805
101303.6767
101302.6655
101301.611
101300.7195
101300.3084
101300.1701
101299.7296
101299.2153
101298.4522
101298.5764
101299.4867
101299.4394
101298.566
101299.3538
101296.6281
101288.657
101284.6044
101277.9866
101296.0225
101299.7176
101294.5436
101298.1759
101318.226
101329.2805
101325.4921
101321.4393
101329.6416
101335.8387
101331.1952
101320.1341
101312.6219
101308.1846
101305.3466
101301.6584
101297.1792
101288.4625
101284.6768
101279.8975
101294.1065
101296.2294
101296.2004
101301.2
101317.1378
101325.5282
101324.4021
101323.1223
101330.0814
101334.2626
101329.9683
101320.1934
101312.7992
101307.8266
101304.704
101301.4237
101297.9726
101288.8864
101287.861
101284.8369
101291.9519
101293.8972
101300.7293
101306.0562
101314.473
101319.8673
101323.4968
101325.2752
101329.114
101330.3116
101327.308
101319.7591
101312.4822
101306.9067
101303.5454
101301.0275
101298.8738
101290.2376
101293.7061
101291.165
101290.1333
101294.0655
101307.3894
101310.4873
101310.2269
101314.2437
101323.2333
101326.7391
101326.2233
101323.8308
101322.9425
101317.86
101311.1886
101305.4417
101302.1933
101300.4958
101299.613
101292.162
101298.9693
101296.1623
101290.5869
101296.3349
101312.6727
101312.6381
101306.4357
101310.9136
101323.2976
101326.5657
101320.6544
101315.969
101316.7809
101314.077
101308.6001
101303.405
101300.9095
101300.038
101300.2536
101294.4282
101302.2914
101299.3204
101293.7586
101299.939
101315.4304
101312.7703
101304.9092
101310.2966
101323.8141
101324.4425
101314.812
101308.3484
101310.0616
101308.8347
101304.9373
101301.0894
101299.8316
101299.7575
101301.2049
101297.0603
101303.7913
101301.5792
101298.7852
101303.9914
101315.927
101311.9476
101305.3807
101310.9424
101322.4423
101320.5557
101309.0043
101302.2421
101303.5172
101302.8889
101300.5413
101298.574
101298.706
101299.4741
101302.4419
101299.8377
101305.1373
101304.3368
101304.5389
101308.0315
101315.5471
101311.0579
101306.9856
101311.3831
101319.9648
101315.6164
101304.9522
101298.268
101298.7727
101297.6469
101296.3875
101295.9707
101297.2275
101298.928
101303.4031
101301.8671
101307.3191
101308.2521
101310.4981
101312.6227
101315.7534
101310.295
101307.7156
101311.7559
101315.89
101310.8822
101301.157
101295.5132
101295.2063
101293.6808
101292.846
101293.2471
101295.2817
101298.0371
101303.5223
101302.8391
101310.3905
101312.8959
101316.1696
101317.9843
101317.7884
101310.1008
101307.8156
101312.2131
101314.6838
101307.4934
101298.3279
101293.0982
101292.7684
101291.0315
101290.1443
101290.6117
101293.1572
101297.0394
101303.039
101303.4015
101313.8808
101317.3405
101320.8346
101323.0247
101320.793
101311.0443
101307.4444
101311.6488
101313.2033
101304.7909
101295.0027
101290.3855
101290.5101
101289.2471
101287.9643
101288.3786
101291.4599
101296.4322
101302.9341
101305.0845
101317.0054
101320.7566
101323.5391
101325.8413
101323.5894
101313.2503
101308.2785
101310.8729
101311.7847
101302.1579
101292.3207
101287.9188
101288.7328
101287.7564
101286.0002
101286.6355
101290.629
101296.4376
101303.8
101308.3297
101319.2188
101322.6318
101324.5478
101326.0638
101324.6336
101316.0702
101310.6258
101310.4056
101309.0352
101299.483
101290.7099
101286.9083
101287.5813
101286.1631
101283.9838
101285.1683
101290.6749
101296.9458
101305.481
101312.2233
101320.0427
101323.0302
101324.3742
101324.4842
101323.6722
101318.5275
101314.0747
101310.1124
101305.4298
101297.0191
101291.0987
101288.2786
101287.5977
101284.7004
101282.168
101284.0515
101290.9946
101297.4407
101306.8702
101314.4256
101319.0695
101321.889
101323.98
101322.6883
101321.4904
101319.8858
101316.8942
101309.2954
101301.0614
101295.3027
101293.304
101291.7516
101288.734
101283.9326
101281.4296
101283.9478
101291.1795
101297.4997
101306.6581
101313.689
101316.514
101319.2743
101323.3835
101321.5034
101318.9773
101319.3067
101317.454
101307.7404
101298.1379
101294.8484
101296.6424
101295.7822
101290.4978
101284.3635
101282.6735
101285.4575
101291.4209
101297.1665
101304.6607
101310.6017
101313.0572
101315.6059
101321.5141
101320.4433
101316.6498
101316.5148
101314.9139
101305.7899
101297.0185
101295.7951
101299.3749
101298.7656
101292.2272
101286.1827
101286.0527
101288.8829
101292.1853
101296.9349
101301.9052
101306.4527
101309.4667
101311.5442
101317.3266
101317.5008
101313.9031
101311.8876
101309.9864
101303.5598
101297.7686
101297.4058
101300.7718
101299.7849
101293.7595
101289.1769
101290.7128
101293.5172
101293.7701
101297.2443
101299.9171
101302.8337
101306.0534
101306.6418
101311.2788
101313.0459
101309.8442
101305.8137
101304.4329
101301.8783
101299.4573
101298.8368
101300.3614
101299.3835
101295.4508
101293.1319
101295.3932
101297.6481
101296.1128
101298.1328
101299.1714
101300.7852
101301.9452
101301.9128
101304.1894
101305.0456
101303.3174
101301.8372
101301.0702
101300.8558
101300.332
101299.804
101299.9145
101299.4939
101298.0119
101297.6227
101299.1576
101299.9252
101298.6422
101299.4172
101298.6257
101292.3729
101299.369
101282.5314
101294.0758
101310.6678
101307.9614
101291.2398
101306.7161
101330.2831
101327.9205
101311.4919
101310.9675
101320.5972
101320.4582
101307.9776
101297.7136
101296.3831
101300.5625
101302.9412
101298.0957
101290.5688
101294.3998
101283.4723
101297.9178
101305.1983
101305.2079
101297.2346
101309.4175
101326.0356
101324.7495
101312.3974
101311.8298
101318.0745
101317.7098
101308.3646
101299.7297
101297.4377
101299.4821
101301.3707
101298.921
101290.0041
101293.563
101289.4857
101299.1818
101299.1753
101306.5167
101309.3891
101313.5717
101318.1576
101320.1241
101315.1487
101312.4906
101312.6637
101312.4215
101307.9374
101302.1409
101298.5357
101297.9111
101298.9674
101300.8923
101291.499
101297.2342
101298.8864
101296.206
101293.4796
101316.811
101325.4886
101313.6727
101306.6584
101316.326
101320.2483
101313.2285
101305.4925
101305.4692
101305.8247
101303.0971
101298.5549
101295.965
101297.0483
101302.4423
101293.0823
101301.6222
101305.5402
101294.3217
101291.7152
101325.7813
101335.2331
101312.116
101296.9615
101314.7067
101326.6979
101313.7397
101297.9787
101297.6251
101301.9555
101301.7896
101297.3285
101294.1698
101296.1093
101303.128
101294.991
101305.0693
101308.4427
101296.3109
101294.9002
101330.8915
101336.6749
101309.8944
101292.488
101314.9717
101330.8498
101314.5676
101292.9688
101291.2195
101297.1768
101298.4236
101295.1042
101293.0071
101296.2798
101303.8289
101297.3458
101306.8468
101309.326
101301.5226
101299.7559
101332.2065
101334.206
101309.2925
101293.9767
101314.8712
101328.63
101311.8689
101289.8227
101287.3645
101292.5613
101294.0471
101292.5785
101292.5537
101297.0632
101304.7128
101299.7423
101308.1181
101310.6586
101307.453
101304.3537
101330.6617
101330.4878
101311.5438
101298.0819
101312.1023
101322.0247
101306.8084
101288.5819
101286.0741
101289.1505
101290.1593
101290.2471
101292.4118
101297.7102
101305.2747
101300.9012
101310.0667
101313.5822
101312.1993
101308.8037
101329.6215
101328.1976
101312.897
101301.6694
101310.0449
101314.8205
101301.5242
101287.4034
101285.4628
101286.7617
101287.0802
101288.2747
101291.9978
101297.824
101304.7805
101301.3505
101313.1705
101317.6601
101315.149
101313.5423
101331.7456
101328.0187
101312.7478
101303.2015
101308.4058
101311.2132
101298.5977
101286.2421
101284.4227
101284.8424
101284.7737
101286.3684
101290.8982
101297.3755
101303.7799
101301.6757
101316.9252
101321.4823
101316.9355
101318.3381
101335.4291
101328.0308
101309.8439
101301.3093
101307.6685
101309.344
101296.5269
101284.3165
101282.525
101283.026
101282.778
101284.3954
101289.4409
101296.6329
101303.2979
101303.5979
101319.5853
101323.5632
101318.1032
101321.5464
101336.7861
101326.6317
101306.3764
101300.5511
101308.1748
101308.0811
101294.3755
101282.4671
101280.8849
101281.4805
101280.9159
101282.41
101287.7781
101295.9027
101304.3448
101307.055
101320.0637
101323.269
101319.7415
101323.0251
101333.3098
101322.6562
101305.226
101301.5874
101308.271
101305.1164
101292.2355
101282.2085
101281.0608
101280.8949
101279.5464
101280.6319
101286.505
101295.4116
101306.2196
101310.9065
101318.5082
101321.0652
101321.616
101323.0987
101325.2318
101316.6508
101306.738
101304.5553
101305.9639
101299.9102
101290.4346
101284.3441
101283.551
101281.7082
101279.0954
101279.6971
101285.8664
101295.1951
101307.4838
101312.7971
101316.2115
101317.9596
101323.2639
101322.6881
101317.112
101311.6948
101310.119
101307.976
101303.2601
101295.0439
101290.1602
101288.7627
101287.6061
101283.5785
101279.8727
101280.1898
101286.0459
101295.0585
101306.3186
101312.3661
101314.3036
101314.3811
101322.8043
101321.7646
101311.4719
101308.518
101312.6865
101310.4387
101301.305
101292.793
101291.7719
101293.5079
101291.498
101285.5525
101281.8359
101282.5143
101287.1743
101294.944
101303.2078
101309.8474
101313.2079
101311.5165
101318.9029
101319.3992
101309.984
101307.1089
101312.2507
101310.1895
101301.035
101293.5654
101294.3681
101296.5421
101293.5955
101287.1792
101284.7814
101286.4239
101289.2828
101294.9505
101300.0825
101306.3687
101311.9923
101309.7178
101312.4491
101314.7714
101310.6815
101306.9087
101308.1214
101306.8128
101301.2409
101296.2747
101296.8991
101297.5554
101293.9592
101288.9273
101288.356
101291.074
101291.9942
101295.5011
101299.115
101302.8979
101308.9863
101306.6095
101305.6198
101309.8199
101310.295
101304.5705
101301.9882
101302.2845
101301.6808
101299.2173
101298.7277
101297.6486
101294.731
101291.9094
101292.597
101295.2909
101295.1428
101296.7646
101299.2848
101300.888
101303.5771
101301.4233
101301.4218
101304.2227
101304.079
101301.1425
101299.5797
101301.1438
101301.2163
101300.2183
101299.2664
101298.3477
101297.0724
101296.7146
101297.3747
101298.6581
101298.3071
101298.859
101303.2775
101287.5314
101323.8125
101310.3279
101255.5111
101284.2018
101352.9542
101305.8785
101248.9764
101283.1039
101342.6983
101336.2158
101293.942
101279.1196
101295.2477
101300.5676
101290.3953
101284.508
101290.6552
101299.4201
101299.4226
101285.9824
101311.4638
101297.7396
101290.5687
101301.9107
101330.0571
101310.4263
101288.1865
101297.103
101323.0082
101318.8466
101296.7977
101286.1579
101293.5037
101296.9046
101290.6804
101286.8982
101291.1774
101297.9121
101300.8276
101288.9273
101301.0105
101292.6228
101316.9701
101310.5982
101305.585
101321.9622
101330.0457
101307.4307
101296.6012
101301.4036
101303.0581
101293.995
101289.6091
101290.7698
101291.0507
101290.1429
101291.6539
101295.9097
101306.8655
101295.7146
101292.6831
101295.8841
101321.3146
101303.3467
101294.9627
101334.9056
101357.192
101309.4503
101272.0721
101288.9736
101311.7355
101300.7991
101285.0871
101284.1929
101290.4813
101292.6745
101291.8025
101294.08
101311.5599
101301.943
101291.0987
101300.1404
101321.3936
101296.0399
101289.5057
101343.4156
101367.9305
101309.6722
101262.9712
101286.8294
101318.369
101304.5212
101279.6241
101277.9235
101289.2415
101293.4826
101291.2808
101293.1806
101313.0395
101304.8669
101296.4735
101303.7899
101326.7773
101301.9857
101291.7545
101347.8985
101371.9997
101310.2446
101266.6287
101290.682
101323.3117
101304.7003
101274.9456
101273.277
101287.2061
101292.2599
101290.4177
101293.4205
101312.3883
101304.7821
101302.6696
101305.5362
101335.6686
101311.3107
101295.3999
101348.2175
101371.8048
101311.2104
101277.812
101293.7775
101322.3627
101301.7629
101271.7896
101271.305
101284.8449
101290.1674
101289.6215
101294.2574
101311.0055
101303.0047
101304.4796
101306.1132
101342.6511
101317.4238
101298.5552
101346.0273
101367.9792
101299.594
101277.6592
101292.1452
101316.2541
101296.0875
101270.8508
101271.6624
101283.1699
101288.0722
101289.0925
101295.1609
101310.1528
101301.7769
101305.591
101308.0685
101342.5448
101317.7143
101304.1589
101347.5235
101363.5161
101298.9801
101273.258
101286.9012
101306.1839
101289.622
101270.7084
101272.8264
101281.7365
101286.2314
101288.8354
101295.731
101309.707
101303.1441
101309.9582
101313.0101
101334.2171
101313.7686
101314.0478
101353.2438
101359.1659
101308.35
101274.8607
101291.2455
101303.6694
101286.1981
101271.314
101273.5044
101280.2816
101284.4473
101288.3192
101295.7597
101309.755
101306.2501
101316.5453
101319.4655
101324.7833
101309.6878
101325.7585
101356.8044
101347.4356
101299.1376
101278.247
101296.2335
101303.8359
101285.1409
101271.579
101273.2245
101278.5102
101282.4594
101287.2134
101295.2551
101309.7755
101309.6362
101321.3129
101323.8534
101319.3329
101308.5282
101335.4118
101355.2247
101333.9003
101289.6066
101280.6056
101299.5996
101305.4935
101285.6905
101272.3375
101272.738
101276.9238
101280.4222
101285.4183
101294.2605
101309.796
101310.6283
101321.0591
101323.9542
101318.864
101311.2456
101337.9943
101347.4883
101319.5799
101283.381
101284.8248
101303.2064
101305.7635
101286.2674
101273.7743
101273.3951
101276.217
101278.862
101283.6053
101293.3997
101308.3782
101308.9405
101316.6341
101319.8284
101321.2748
101315.8083
101332.6239
101331.5818
101306.7436
101285.3101
101294.9684
101306.3644
101302.4441
101285.8893
101276.775
101276.0261
101277.275
101278.5443
101282.6886
101293.093
101305.7951
101305.4616
101312.6259
101314.7517
101322.236
101320.2532
101321.5462
101311.2458
101298.7149
101295.5973
101303.6138
101304.5482
101295.5553
101285.546
101281.8489
101280.7261
101279.7436
101279.6324
101282.9375
101293.2827
101301.2568
101303.4566
101312.6305
101311.0548
101319.0619
101320.8577
101313.711
101297.5401
101295.7146
101305.2589
101311.0133
101301.4766
101289.5207
101285.7969
101287.4725
101286.0121
101282.8956
101281.7989
101284.295
101293.3092
101297.7402
101303.6171
101315.8155
101310.0994
101311.3002
101317.0093
101310.4081
101294.2426
101296.5498
101309.7467
101313.0198
101298.9677
101286.8004
101287.1803
101291.7771
101290.4477
101285.898
101284.3687
101286.3728
101293.008
101297.6071
101305.1735
101317.7229
101312.0277
101302.6479
101309.3778
101312.1863
101301.8383
101298.6408
101307.9917
101310.2593
101298.3129
101288.412
101289.6758
101294.1844
101293.4069
101288.6126
101287.2602
101289.1832
101292.8955
101300.9476
101304.3939
101314.9051
101312.959
101296.1234
101302.4422
101313.9156
101307.8952
101298.2651
101301.6825
101305.3253
101299.8223
101293.7378
101293.3792
101295.9356
101295.7518
101292.2746
101291.0903
101292.7428
101293.9073
101302.3691
101301.1155
101306.3259
101302.9274
101297.5612
101302.1966
101305.5205
101301.5582
101298.6414
101300.7781
101301.956
101300.3171
101297.9579
101297.2265
101298.2753
101298.6633
101297.0455
101296.1882
101296.9376
101297.4858
101318.0123
101286.9471
101327.3849
101358.6695
101229.0254
101218.5583
101368.0636
101382.8659
101273.2523
101236.3704
101298.8417
101328.0347
101295.0116
101261.3671
101268.4385
101286.4346
101287.1586
101282.6643
101282.9567
101294.1638
101307.6393
101285.9797
101325.6663
101321.4529
101294.0195
101283.2995
101346.4847
101349.4376
101292.6248
101260.837
101292.73
101311.909
101290.7647
101268.5139
101269.6717
101280.3564
101284.1809
101283.5951
101285.3524
101294.24
101306.183
101290.8882
101311.8643
101290.7465
101338.3612
101330.7374
101311.0073
101312.2083
101314.5245
101290.3034
101281.7625