/*--------------------------------*- C++ -*----------------------------------*\
| =========                 |                                                 |
| \\      /  F ield         | OpenFOAM: The Open Source CFD Toolbox           |
|  \\    /   O peration     | Version:  5.x                                   |
|   \\  /    A nd           | Web:      www.OpenFOAM.org                      |
|    \\/     M anipulation  |                                                 |
\*---------------------------------------------------------------------------*/
FoamFile
{
    version     2.0;
    format      ascii;
    class       volScalarField;
    location    "4.8";
    object      T;
}
// * * * * * * * * * * * * * * * * * * * * * * * * * * * * * * * * * * * * * //

dimensions      [0 0 0 1 0 0 0];

internalField   nonuniform List<scalar> 
30538
(
276.0008687
273.0177792
272.9813119
272.976766
272.9781341
272.9827723
272.9904975
272.9973893
273.0040164
273.0113988
273.0208104
273.0304963
273.0388133
273.0447519
273.0473998
273.0431154
273.0337777
273.0233704
273.0040975
272.2127748
276.000606
273.0151607
272.9792199
272.9744368
272.9751265
272.9789007
272.9859071
272.9928182
273.0000772
273.0078104
273.0169284
273.0261516
273.033829
273.0390162
273.0409884
273.036834
273.0284966
273.0192127
273.0007501
272.2138582
275.9822813
273.016376
272.9816507
272.9766346
272.9763094
272.9784743
272.9842108
272.9910531
272.9991648
273.00718
273.0157174
273.0240256
273.0309192
273.0352154
273.0362748
273.0323982
273.0255396
273.0179298
273.0010634
272.1996809
275.9794277
273.0180109
272.9848909
272.9798379
272.9785644
272.9788235
272.9829221
272.9894097
272.9978192
273.0058079
273.0134198
273.020555
273.0268453
273.0305294
273.0310005
273.0276596
273.0224167
273.0165113
273.0013461
272.2074048
275.9237884
273.0191963
272.9885517
272.9838841
272.9819784
272.9806253
272.9828518
272.9883515
272.9961393
273.003532
273.0099817
273.0160126
273.0217962
273.0253578
273.0259922
273.023644
273.0198415
273.0152471
273.0014449
272.1788872
275.8983556
273.0205035
272.9924504
272.9886746
272.9865274
272.9839647
272.9843262
272.9879007
272.9943002
273.0006605
273.006021
273.0111905
273.0163805
273.019798
273.0213056
273.0203939
273.0179641
273.0143528
273.0016517
272.1903445
275.7950157
273.0211955
272.9965821
272.9939621
272.9917521
272.9883151
272.9869819
272.9883232
272.9926259
272.9977874
273.0024602
273.0070044
273.0111864
273.0140678
273.0163148
273.0170769
273.016038
273.0131913
273.0014011
272.1593197
275.7416311
273.0224722
273.0008904
272.9994407
272.9971876
272.9932473
272.9906228
272.9897905
272.9919663
272.9958813
273.0001256
273.0040949
273.0069847
273.0087363
273.0109444
273.0130032
273.0132899
273.0112069
273.0006399
272.1778365
275.588762
273.0231077
273.0051004
273.004639
273.0023817
272.9981314
272.9946833
272.9924652
272.9929687
272.9955819
272.9992027
273.0024054
273.0038684
273.0040919
273.0056052
273.0081371
273.0095105
273.0084182
272.9994929
272.1623134
275.5046191
273.0241228
273.0088059
273.0092096
273.0072912
273.003148
272.9993982
272.9963714
272.99568
272.9969908
272.9995098
273.0017127
273.0020462
273.0008731
273.001111
273.0030768
273.0051336
273.0053009
272.9983445
272.1989143
275.2996516
273.0236639
273.0116801
273.0129292
273.0119809
273.008508
273.004852
273.0013513
272.9996038
272.9991888
272.9999963
273.0012299
273.0011288
272.9993118
272.9982448
272.9988505
273.0009545
273.0023368
272.997657
272.2141342
275.1826715
273.0229484
273.0133885
273.0158153
273.0164721
273.0142536
273.0109564
273.0070084
273.0038385
273.001326
273.0003085
273.0006371
273.0006871
272.9990759
272.9971432
272.9962275
272.9976863
272.9997938
272.9969615
272.267857
274.922446
273.0203391
273.0140005
273.0177611
273.0203596
273.0198234
273.0170018
273.0122716
273.0074051
273.0029621
273.0003625
273.0000168
273.0003577
272.9993375
272.9970764
272.9952003
272.99575
272.9978012
272.9964295
272.318011
274.7731571
273.017745
273.0138686
273.0187796
273.0230354
273.0241408
273.0217497
273.0162246
273.0098949
273.004156
273.0006696
272.9996231
272.999992
272.9993713
272.9973946
272.9952368
272.9950178
272.9965246
272.9957539
272.3843903
274.4677505
273.0143851
273.0133709
273.0189433
273.0239714
273.0260619
273.0239719
273.0180997
273.0112107
273.0051823
273.0014465
272.9996252
272.9993909
272.9988346
272.9975297
272.9957723
272.9950294
272.9956431
272.995367
272.4680323
274.2962664
273.011987
273.0126514
273.0182776
273.0230611
273.0251437
273.0232362
273.0177297
273.0115054
273.0060688
273.0024492
272.9997125
272.9983734
272.9977357
272.9973642
272.9964362
272.9953467
272.9954695
272.9954119
272.5439845
273.9581145
273.0093924
273.0115759
273.0166385
273.0203618
273.0215481
273.0197788
273.015419
273.0108403
273.0066274
273.0031893
272.999662
272.9972988
272.9964883
272.9972755
272.9972398
272.9960804
272.9958393
272.996699
272.6617139
273.772541
273.0073519
273.0097488
273.0137064
273.0160273
273.0163193
273.0146995
273.0119813
273.0091315
273.0063749
273.0032243
272.9995783
272.996911
272.9962119
272.9977255
272.9981833
272.9969439
272.9968649
272.9981721
272.7427841
273.4025898
273.0164124
273.0089308
273.0329773
273.0175147
273.0388659
273.0179449
273.030894
273.0124191
273.0174334
273.0043852
273.0045325
272.9972646
272.9987097
272.9949481
272.9981385
272.993284
272.9975904
272.9978241
272.8765458
271.63427
275.8216638
272.6012089
276.6375605
273.509675
276.8691019
273.9506035
276.4853645
273.864333
275.6413955
273.3342506
274.5866641
272.628532
273.6573451
272.0905839
273.1273921
271.9310187
273.0985989
272.1811225
273.4120149
276.5637922
273.0220289
272.9821143
272.9796708
272.9825747
272.985465
272.991724
272.9984677
273.0057346
273.012525
273.0215901
273.0310248
273.0381681
273.0407743
273.041027
273.0370919
273.0296211
273.0201293
272.9976473
271.977773
276.563738
273.019732
272.9801342
272.9770938
272.979098
272.9816372
272.9877139
272.9944164
273.0019212
273.0090358
273.0178746
273.0268506
273.033665
273.0360926
273.0355973
273.0312579
273.0242398
273.0159763
272.9947953
271.9737007
276.5501346
273.0214463
272.9827587
272.9788102
272.9796176
272.9815028
272.9870161
272.9934753
273.001239
273.0086661
273.0168357
273.0247923
273.0310817
273.0335214
273.0322506
273.0273969
273.0211873
273.0147102
272.995621
271.9563862
276.5439764
273.0234693
272.9861913
272.9815013
272.9812743
272.9823073
272.9868217
272.9926554
273.0004723
273.0077272
273.0147505
273.0211488
273.0269613
273.029654
273.0282305
273.0231856
273.0179935
273.0133086
272.9963333
271.9489399
276.493932
273.0248771
272.9898401
272.9850208
272.9842358
272.9843077
272.9874256
272.9921583
272.9994772
273.0060509
273.0115531
273.0162458
273.0214687
273.0245546
273.0237389
273.0193672
273.015373
273.012028
272.9966599
271.9169582
276.459044
273.0260632
272.9933996
272.9892023
272.9883234
272.9874416
272.988878
272.9920692
272.9983681
273.0038862
273.0079711
273.0111555
273.0156295
273.0186692
273.0187836
273.0159766
273.0133853
273.0109378
272.9966778
271.909611
276.3560891
273.0264201
272.9968841
272.9938483
272.9931154
272.9913676
272.9910722
272.9925174
272.9972147
273.0016314
273.0046153
273.0068801
273.0101442
273.0125275
273.0132125
273.0124031
273.0113692
273.0093789
272.9959481
271.8801304
276.2815249
273.0270082
273.0004527
272.9988385
272.9983482
272.9958941
272.9940357
272.9936465
272.9966498
273.0000775
273.0024153
273.0039812
273.0059891
273.0069724
273.007613
273.008365
273.0086919
273.0070516
272.9946532
271.8856714
276.1174531
273.0269108
273.0040807
273.0038192
273.0035683
273.0005708
272.9972813
272.9955651
272.9972105
272.9997111
273.0014116
273.0023287
273.002844
273.0022848
273.0024829
273.0041102
273.0053156
273.0041123
272.9930006
271.8799091
275.9991007
273.0271099
273.0075861
273.0084993
273.0085912
273.005339
273.0011104
272.9985565
272.9992197
273.0005947
273.0015278
273.0013709
273.0007375
272.9989504
272.9985787
273.000129
273.0016641
273.0011447
272.9918353
271.9143103
275.7696926
273.0261527
273.0106887
273.012555
273.0131864
273.0100992
273.005548
273.0025159
273.0021988
273.0022504
273.0017233
273.0004685
272.9991379
272.9970226
272.9962047
272.9969786
272.9983157
272.9987363
272.9918269
271.952601
275.6074687
273.0251318
273.0130625
273.0158559
273.0171667
273.0147204
273.0106076
273.0072099
273.005539
273.0037513
273.0015934
272.9994505
272.9980141
272.9963253
272.9951471
272.994825
272.9956551
272.997081
272.9926291
272.0174218
275.311769
273.0226202
273.0144811
273.018126
273.0201532
273.0188204
273.0157242
273.011853
273.0083849
273.004555
273.0010116
272.9985131
272.9974081
272.9963079
272.9947664
272.993433
272.9938479
272.9960564
272.9939053
272.1022504
275.109818
273.0201802
273.0148663
273.0192635
273.0219197
273.0219153
273.0199381
273.0155593
273.0102476
273.0046701
273.0004612
272.99813
272.9975
272.996563
272.99461
272.9926573
272.9927534
272.9953424
272.9947224
272.1859565
274.7598851
273.0166084
273.0143122
273.0192387
273.0223946
273.0233922
273.0222067
273.0174207
273.0108218
273.004378
273.0002991
272.9983777
272.9979631
272.9967605
272.994466
272.992373
272.9923443
272.994693
272.9950482
272.3086372
274.5317404
273.0134423
273.0129113
273.0181176
273.0215745
273.0228776
273.0218929
273.0170726
273.0103077
273.0040715
273.000594
272.9990108
272.9983453
272.9966976
272.9944725
272.9927758
272.9926762
272.9943865
272.9948232
272.4035441
274.1432973
273.009669
273.0108664
273.0158793
273.0193271
273.0203428
273.0190483
273.0146654
273.0089048
273.003786
273.0010914
272.9996519
272.9984833
272.9965684
272.9949426
272.9940502
272.9939988
272.9947869
272.9954333
272.5599796
273.9022992
273.0066029
273.0082728
273.01257
273.0155368
273.0160606
273.0143694
273.0110396
273.0069165
273.0033783
273.0013575
272.9999787
272.9985306
272.9967624
272.9960237
272.9958459
272.9957327
272.9959529
272.9964176
272.6595741
273.4786748
273.0162292
273.0081836
273.0348505
273.0196587
273.0431421
273.020563
273.0328967
273.0119732
273.0162639
273.0032327
273.0049154
272.9978217
272.9983511
272.9919326
272.9955622
272.9911091
272.9966194
272.9957085
272.8326764
271.6833908
276.0062112
272.8450564
276.9868468
273.9350135
277.2925064
274.4424938
276.8613844
274.2497197
275.880031
273.5155073
274.6785296
272.5948649
273.6326396
271.8795614
273.0639832
271.6525877
273.0952093
271.9430795
273.4984941
277.1320405
273.0298614
272.985066
272.9838108
272.9904405
272.9916206
272.9949219
273.0022029
273.0118581
273.0175973
273.0228256
273.0301276
273.0360777
273.0360405
273.0325422
273.027628
273.0227208
273.0163645
272.9911994
271.2861129
277.1357422
273.0272383
272.9830145
272.981319
272.9862159
272.9876353
272.9917937
272.9989011
273.007958
273.0138595
273.0193647
273.0262141
273.0318526
273.0319417
273.0282377
273.0228837
273.0178551
273.0121364
272.9881084
271.2825165
277.1157224
273.0283542
272.9858873
272.9832988
272.986076
272.9879154
272.9929232
272.9991888
273.0070632
273.0132341
273.0189477
273.0246348
273.029467
273.0299833
273.0263704
273.0205857
273.0155033
273.0107666
272.9887955
271.2392137
277.1206736
273.0299616
272.9897615
272.986146
272.9869811
272.9894972
272.9947878
272.9993512
273.005805
273.0123048
273.0178846
273.0217436
273.0252413
273.0263323
273.0235315
273.0176584
273.0127099
273.0091332
272.9894223
271.2371267
277.0574144
273.0307891
272.9934949
272.9893651
272.9891923
272.9920607
272.9967975
272.9994846
273.0047415
273.0112826
273.0160283
273.0175439
273.019433
273.0210132
273.019481
273.0142399
273.0099984
273.0074683
272.9897827
271.1643719
277.0356134
273.0319088
272.9965178
272.9926234
272.9926177
272.9952412
272.9985482
272.9996089
273.0041533
273.0102538
273.0137967
273.0131412
273.0134234
273.0148904
273.0142637
273.0103899
273.0074744
273.0058925
272.9899494
271.1723809
276.9064331
273.0317701
272.9989721
272.9960266
272.9968942
272.998766
273.0000926
272.9999616
273.0038538
273.0089857
273.011041
273.009081
273.0082098
273.0088833
273.0085126
273.0061338
273.0048485
273.0039944
272.9895898
271.108836
276.8427283
273.0323112
273.0014149
272.9999146
273.0018129
273.0026763
273.0018439
273.0006624
273.0038214
273.0077533
273.0086786
273.0060558
273.0043469
273.003854
273.0031394
273.0020298
273.0020807
273.0016208
272.988656
271.144586
276.6345859
273.0313107
273.0041732
273.0042771
273.0070196
273.0069686
273.0037974
273.0016253
273.0041072
273.0071256
273.0070215
273.0038341
273.0014092
272.9998012
272.9988046
272.9984985
272.9992643
272.9990112
272.9873694
271.1319288
276.5238871
273.0309781
273.0072628
273.0088036
273.0120789
273.0114351
273.006365
273.0032413
273.0049894
273.007351
273.0063273
273.00227
272.9990008
272.9967482
272.9958559
272.9959021
272.9967431
272.9966016
272.9863973
271.2136206
276.2283655
273.0286354
273.0103775
273.0129875
273.0164037
273.0154109
273.0095504
273.005595
273.0063756
273.0079341
273.0059422
273.0007872
272.9967459
272.9945183
272.9940885
272.9942478
272.9947661
272.9949151
272.9867695
271.276461
276.0708744
273.027656
273.0132115
273.01645
273.0193562
273.0183079
273.0130475
273.0087638
273.0082595
273.0082649
273.0051189
272.9991445
272.9948195
272.9931015
272.993104
272.9931096
272.9931892
272.9940052
272.9881577
271.4018778
275.6901953
273.025151
273.0153302
273.0188131
273.0209137
273.0198725
273.0163302
273.0123673
273.0101984
273.0079268
273.0036416
272.9977089
272.9939715
272.9926275
272.9924603
272.9918477
272.9917544
272.9936444
272.9904799
271.5412676
275.4906133
273.0239695
273.01634
273.019955
273.0212884
273.0204251
273.0188337
273.0156154
273.0116292
273.006844
273.0016813
272.9970275
272.9945787
272.9933389
272.9919776
272.9904775
272.9904302
272.9933611
272.9923616
271.6948218
275.0397927
273.0204422
273.0158998
273.0197478
273.0209107
273.0203067
273.0200677
273.0174152
273.01214
273.0052952
272.9999214
272.9972239
272.9964355
272.9947851
272.991834
272.9894901
272.9897033
272.9930371
272.9934943
271.891164
274.8113907
273.0171362
273.0139795
273.0181404
273.0200408
273.0197385
273.0195091
273.0170168
273.0112913
273.0037423
272.998956
272.998042
272.9984152
272.9963294
272.992236
272.9896161
272.9902449
272.99321
272.993763
272.0541526
274.311617
273.0118409
273.0110684
273.0153035
273.0183538
273.0183048
273.0171673
273.0144383
273.0092514
273.0025834
272.998965
272.9991459
272.9998872
272.9975089
272.9933419
272.9911899
272.9923914
272.9943986
272.9943401
272.2939066
274.0714094
273.0076127
273.0077867
273.0116281
273.0151589
273.0153747
273.0132417
273.0105778
273.0065061
273.0018678
272.9995538
273.0000394
273.0004077
272.9982143
272.9949638
272.9937714
272.9953126
272.9964158
272.9954047
272.4589871
273.5313941
273.0213377
273.0074114
273.0426548
273.0199379
273.0521255
273.0204503
273.0366949
273.010683
273.0154965
273.0017243
273.0040907
272.9983446
272.9967901
272.9898457
272.9905825
272.9905049
272.9951857
272.9947166
272.7192641
271.3211237
276.6593785
272.6555326
277.7900698
273.9109867
278.0537113
274.4874575
277.3610673
274.2404631
276.0264364
273.388368
274.4598555
272.3507833
273.1182626
271.5794338
272.396737
271.4476858
272.5064696
271.9687901
273.1058071
278.9554478
273.0586788
272.9907406
272.9852035
272.9987836
273.0017091
272.9979143
273.001308
273.0175904
273.0268429
273.0243013
273.0210722
273.0263277
273.0296629
273.0253303
273.0171586
273.0128664
273.0105563
272.983096
270.2613329
278.9644917
273.0546531
272.987392
272.983326
272.9939969
272.9957523
272.9959114
273.000313
273.0134375
273.0206344
273.0200538
273.0188623
273.0230683
273.0248092
273.0207708
273.0136206
273.009363
273.0065982
272.9790393
270.2304448
278.9710495
273.0543247
272.9898699
272.9872523
272.9925553
272.9942509
272.999726
273.0043688
273.0115942
273.0163787
273.019266
273.0202914
273.0220016
273.0214536
273.0184321
273.0130227
273.0087679
273.0055307
272.9789223
270.1631735
278.9861512
273.0545071
272.9944365
272.9922609
272.9914466
272.994806
273.005359
273.0082218
273.0085846
273.0121176
273.0189388
273.0210578
273.0193454
273.0160723
273.014784
273.0112906
273.0073696
273.0039883
272.9789178
270.0929985
278.9620313
273.0542959
272.9985686
272.9962423
272.9921125
272.9970665
273.0100186
273.0103852
273.0059331
273.0095897
273.0187827
273.0204844
273.0145497
273.0096133
273.0097936
273.0081637
273.0050232
273.0020394
272.9792649
269.9931204
278.9329335
273.0543703
273.0012171
272.9988064
272.9949057
273.0003822
273.0127719
273.011011
273.0050469
273.0091361
273.0189797
273.0183852
273.0095593
273.0034069
273.0044842
273.0040457
273.0019875
272.9999612
272.980151
269.9270358
278.8202295
273.0539462
273.002499
273.0007389
272.9991614
273.0040444
273.0137279
273.0108485
273.0056237
273.0096087
273.0176557
273.0149589
273.004672
272.9985123
272.9994097
272.9995206
272.9985245
272.9977998
272.9810785
269.8622399
278.7072573
273.0536883
273.0037168
273.0031366
273.004
273.0076336
273.0138895
273.0105104
273.0070125
273.0098445
273.0154766
273.010825
273.0012936
272.9953611
272.9958373
272.9956474
272.9953689
272.9956803
272.9816566
269.8559201
278.468046
273.0512878
273.0056047
273.0064833
273.0089883
273.0115593
273.0143159
273.0100697
273.0075772
273.0099778
273.0120693
273.0069032
272.9982184
272.9932444
272.9932405
272.9928589
272.9928372
272.9936365
272.9816917
269.8846222
278.2497218
273.0484226
273.0082123
273.0103968
273.0136808
273.0159145
273.0159846
273.0098785
273.0075357
273.0101474
273.0109476
273.0041553
272.9960536
272.9914995
272.9916507
272.9912437
272.9911697
272.9918666
272.9816504
269.9740598
277.8655797
273.0433578
273.0111161
273.0140894
273.0174377
273.0197996
273.0181374
273.0103393
273.0069873
273.0095146
273.0096972
273.002078
272.9935946
272.9896495
272.990313
272.9904472
272.9901348
272.9906628
272.9819108
270.1297131
277.5526368
273.0399965
273.0137314
273.0169026
273.019477
273.021691
273.019841
273.0115684
273.0072721
273.0086923
273.0085381
273.0001476
272.991753
272.988108
272.9894517
272.9899829
272.9894247
272.9900928
272.9831171
270.3136992
277.036565
273.0361232
273.0156259
273.0184532
273.0200488
273.0213463
273.020002
273.0131625
273.0086692
273.008112
273.0063787
272.9982352
272.9907857
272.9877277
272.9890438
272.9893804
272.9886575
272.9897942
272.9850304
270.5867063
276.6525274
273.0342123
273.0164519
273.0188155
273.0196299
273.0195524
273.0186251
273.0144887
273.0109355
273.007675
273.003584
272.9965173
272.9914078
272.9891604
272.9894228
272.9886668
272.9878239
272.989581
272.9870049
270.8308733
276.0375708
273.0295135
273.0158147
273.0179183
273.0190206
273.0176479
273.0164038
273.0150869
273.0127965
273.0068949
273.0002521
272.9954023
272.9934336
272.9921132
272.990477
272.9881751
272.987476
272.9897822
272.9885421
271.1881375
275.6188873
273.0244038
273.0138225
273.0157644
273.018283
273.0163295
273.0141014
273.0143604
273.0130512
273.0056256
272.9981
272.9953136
272.996324
272.9954564
272.9918956
272.9884052
272.9883414
272.9909172
272.9900053
271.4480682
274.9371459
273.0166017
273.0109766
273.0127011
273.0165994
273.0152745
273.0121342
273.0121072
273.0110724
273.0041606
272.9973946
272.9963221
272.9987556
272.9980288
272.9933215
272.9896809
272.9906818
272.9932845
272.9918136
271.8613649
274.5167779
273.0101445
273.007917
273.009626
273.0132949
273.0133807
273.0101644
273.0089166
273.0074224
273.0026259
272.9981321
272.997811
273.000137
272.9991511
272.9947096
272.9919385
272.9939768
272.9964452
272.9940657
272.1141778
273.791819
273.0284247
273.0111578
273.0569459
273.0287585
273.0710964
273.0324966
273.0493877
273.0174744
273.0211509
273.0024903
273.0038421
272.99629
272.9947992
272.9852913
272.9856716
272.9865114
272.9945036
272.9933908
272.5513784
271.4622366
277.3255791
273.4519088
279.0128179
275.3378924
279.5064773
276.1700324
278.6218506
275.5523533
276.7924848
273.9527193
274.6541766
272.1224242
272.8765183
270.7293997
272.0131776
270.3638066
272.3675677
271.1101386
273.3709464
280.4700678
273.0858637
273.0028933
272.9893428
272.9983317
273.0118163
273.0101089
272.9977861
273.0103503
273.0291429
273.0273358
273.0138169
273.0116391
273.0174208
273.0174515
273.0092985
273.0028469
273.0022965
272.9718277
268.453514
280.4964191
273.0807809
272.9956566
272.9867372
272.9979759
273.004238
273.004645
272.9991347
273.0092578
273.0226568
273.0215516
273.0110296
273.0087947
273.0119552
273.0117456
273.005931
273.000684
272.9993306
272.9672035
268.4092743
280.5166785
273.0796625
272.9950479
272.9915366
272.9991608
272.9997725
273.0058766
273.0088533
273.012792
273.0167859
273.0179061
273.0129379
273.0090653
273.0075856
273.0074004
273.0051938
273.0020313
272.999741
272.9675686
268.2553204
280.5870559
273.0805323
272.9979626
272.9989878
272.9971542
272.9957162
273.014244
273.0216869
273.0131847
273.0080284
273.0149134
273.0165083
273.0092239
273.001716
273.0017143
273.0030957
273.0021454
272.9992209
272.9682271
268.1580677
280.5696692
273.0796865
273.0014261
273.0042767
272.9960191
272.9948028
273.0216784
273.0296391
273.0122304
273.0005753
273.0134348
273.0210283
273.0090566
272.9955331
272.9953243
272.9996772
273.0005067
272.9977461
272.9698056
267.9333161
280.5934322
273.0799666
273.0041869
273.0066334
272.9979272
272.9977782
273.0262089
273.0311769
273.010716
272.997079
273.0132887
273.0237642
273.0092005
272.9913051
272.9901174
272.9956434
272.9973871
272.9955348
272.971827
267.8631082
280.4528123
273.0781088
273.0056439
273.007464
273.0023355
273.0020434
273.0277138
273.0296277
273.0103166
272.9980572
272.9987055
273.0216112
273.0066664
272.9885706
272.9869331
272.9918713
272.993634
272.9931824
272.9749025
267.7033766
280.3706042
273.0777485
273.0067618
273.008712
273.0073399
273.0060615
273.0269191
273.0269713
273.0121061
273.0011244
273.0076913
273.0160539
273.0023895
272.9874093
272.9859083
272.9892016
272.9904932
272.9911505
272.9775764
267.7423466
280.0429774
273.0724714
273.0083683
273.011247
273.0113635
273.0098508
273.0263045
273.0252957
273.0130777
273.0036446
273.0085068
273.0101064
272.9980801
272.9864406
272.9855043
272.9875567
272.9882047
272.9896447
272.9798501
267.7624561
279.8218244
273.0689339
273.0109574
273.0146836
273.0139002
273.0136679
273.0280245
273.0250829
273.0128145
273.0045285
273.0069629
273.0070849
272.995759
272.9856615
272.9850219
272.9865299
272.9868581
272.9884042
272.9807947
267.956148
279.2783558
273.060122
273.0139705
273.0178204
273.0152948
273.0172683
273.0306554
273.0248632
273.0103043
273.0028034
273.0061844
273.0055753
272.9942153
272.984396
272.9839715
272.9858154
272.9859934
272.9873515
272.9812108
268.2028037
278.9350188
273.056001
273.0161187
273.0194372
273.0159598
273.0193346
273.0312561
273.0233371
273.0072717
273.0019373
273.0064061
273.0045839
272.9927085
272.9832648
272.9832568
272.985412
272.9854168
272.9864491
272.9810127
268.5390086
278.1897148
273.0480528
273.0165073
273.0190713
273.0167454
273.0197743
273.0278851
273.0196704
273.0059649
273.0024523
273.0062824
273.0022911
272.9912035
272.9833718
272.9838916
272.9856799
272.985179
272.9857131
272.9808012
268.9950722
277.7637101
273.045049
273.0153427
273.0172054
273.0176084
273.0190617
273.0208648
273.0144169
273.0066616
273.0044373
273.0043662
272.9983087
272.9900293
272.9853532
272.9862107
272.9867928
272.9854313
272.9854951
272.9812882
269.4189895
276.8709638
273.0357852
273.013546
273.0146101
273.0183479
273.0180698
273.0139617
273.0100571
273.0088531
273.0067978
273.002174
272.9946561
272.9901097
272.98907
272.9895686
272.9883891
272.9862625
272.9861613
272.9823733
270.0208339
276.4085449
273.0298184
273.0119742
273.0115747
273.0175648
273.0168197
273.0091617
273.0071995
273.0105278
273.0084759
273.000678
272.9932035
272.9917736
272.9930937
272.9927001
272.9898293
272.98775
272.988038
272.9844858
270.4611243
275.4335972
273.0191246
273.010896
273.0090869
273.0142546
273.0146432
273.0077114
273.0058544
273.0099858
273.0081939
273.0006017
272.9942062
272.9942909
272.9958924
272.9944795
272.9909774
272.9898639
272.990992
272.9875662
271.1388
274.9817988
273.012507
273.009667
273.0081592
273.0092072
273.0117525
273.0082772
273.0060228
273.0067327
273.0056245
273.0009345
272.9967136
272.9967916
272.9971835
272.9950178
272.9922419
272.9924049
272.9943607
272.9912951
271.5586524
273.9636543
273.047856
273.0135168
273.0909941
273.0272813
273.103402
273.037253
273.0669834
273.017004
273.0249351
273.0038783
273.0018312
272.9919338
272.9862323
272.980609
272.9784111
272.9819606
272.9890463
272.9911055
272.2590885
270.7577805
278.8511782
273.206959
281.0172564
275.5342103
281.4378235
276.5599335
279.8758108
275.7461298
277.1532994
273.7791796
274.1172256
271.5357741
271.5671325
269.8928095
270.2706846
269.7163302
270.8457562
271.098137
272.4044797
283.9916335
273.1600138
273.0234561
273.0115929
272.9698065
272.992946
273.0465708
273.0105136
272.9669566
272.9938296
273.0391223
273.032355
272.9972484
272.9847289
272.998821
273.0053373
272.9982703
272.9934011
272.9587691
265.7920822
284.0508457
273.155666
273.0105376
272.9984616
272.9935081
273.0032557
273.025512
273.0109298
272.9942486
273.0013897
273.0205924
273.0154046
272.9961229
272.9868471
272.9939298
272.9987893
272.9946805
272.991337
272.9548444
265.6585269
284.1826543
273.1596867
273.0025285
272.9946545
273.014071
273.0101835
273.0069158
273.0204575
273.0271813
273.0095985
273.0001141
273.0017778
273.0009667
272.9930263
272.9907965
272.9935892
272.9943287
272.993317
272.9584302
265.3878041
284.3395459
273.166906
272.9962066
272.9974442
273.0176976
273.0048241
272.9990676
273.031068
273.0486542
273.0114155
272.9810813
272.9919642
273.007539
272.9982117
272.9869791
272.9878914
272.9930688
272.9946208
272.9635251
265.0601059
284.4919404
273.1732428
272.995207
273.0010275
273.0181302
272.9995192
272.9952802
273.0381846
273.0573401
273.0117904
272.9736008
272.9901277
273.0123834
273.0008453
272.982319
272.9823177
272.9912037
272.9945611
272.9696502
264.6690492
284.5679043
273.1753371
272.999551
273.0041686
273.0227306
273.0045324
272.9974583
273.0419639
273.06072
273.0120428
272.9331225
272.9929753
273.0159243
273.000673
272.9782727
272.9780143
272.9887817
272.9929641
272.9762807
264.3537779
284.5287528
273.1732339
273.0045048
273.00583
273.0300336
273.0121168
273.0005514
273.0423575
273.0605052
272.990552
271.4335814
272.9893625
273.0147813
272.9980499
272.9754347
272.9759442
272.9863265
272.9908486
272.9824419
264.0995913
284.3884864
273.1674043
273.0060727
273.0065729
273.0358582
273.0171487
273.0031835
273.0406063
273.057322
272.9971275
272.0564923
272.9871161
273.0095635
272.9933321
272.9744458
272.9759758
272.9847605
272.9890142
272.9875682
264.0128075
284.0235364
273.1565001
273.0069765
273.0083425
273.0360613
273.0175525
273.0075448
273.0416692
273.0536326
273.0028018
272.9691729
272.9887258
273.0013821
272.9881648
272.9743432
272.9769748
272.9837171
272.9876409
272.9908027
264.0939693
283.5973029
273.1472766
273.0104013
273.0123493
273.0297184
273.0144825
273.0151113
273.0459171
273.049969
273.0095485
272.9813276
272.9917015
272.9992659
272.9855342
272.975078
272.9778771
272.9829493
272.9865045
272.9923366
264.3487207
282.8559585
273.1320914
273.0153961
273.0173531
273.0222768
273.0110934
273.0238891
273.0482722
273.0405132
273.0020035
272.983718
272.9952826
272.999336
272.9848709
272.9757373
272.9782708
272.9821267
272.9852644
272.990644
264.8350208
282.1798021
273.1190053
273.0188738
273.0205251
273.0176454
273.0097253
273.0309368
273.0466041
273.0296047
272.9941326
272.9851825
272.9976713
273.0006425
272.9854936
272.9768022
272.9785758
272.9815425
272.9839544
272.9881157
265.414719
281.0960327
273.0977606
273.0183127
273.0201908
273.0166191
273.0111299
273.032332
273.0400716
273.0181109
272.9889374
272.9881976
273.0002968
273.0009171
272.9861643
272.9783168
272.9797414
272.9816286
272.9829658
272.9836717
266.2586499
280.2551441
273.0804104
273.0145028
273.0165055
273.0177592
273.0139681
273.0275162
273.027092
273.0077173
272.990066
272.9958256
273.0026728
272.9984342
272.9860418
272.9809319
272.9822784
272.9829262
272.9829263
272.9819518
267.0301194
278.9565428
273.0558378
273.0109521
273.0120602
273.0178453
273.0168298
273.018366
273.010773
273.0009447
272.997699
273.0023411
273.0013068
272.9933069
272.9860195
272.9851319
272.986181
272.9851489
272.984041
272.980318
268.0915709
278.0882289
273.041027
273.0105534
273.0087232
273.0148677
273.016861
273.0118657
272.9997134
272.998173
273.0049178
273.0080735
272.9992049
272.9891234
272.9866468
272.9897174
272.990367
272.9877515
272.9860278
272.9821489
268.8564961
276.6991743
273.0244579
273.0126193
273.0075702
273.0084827
273.0134863
273.0089846
272.9967251
272.9985381
273.0082392
273.0098255
272.997806
272.9877912
272.9884271
272.9933896
272.9938829
272.9901789
272.9883094
272.9841277
269.995644
275.896948
273.0175579
273.0138177
273.0103986
273.0020124
273.0092552
273.0107364
273.0032721
273.0000969
273.0069673
273.0079156
272.9979342
272.9898266
272.9910791
272.9955591
272.996145
272.9923196
272.9907013
272.988395
270.6695719
274.484574
273.0740731
273.0270417
273.1572448
273.054526
273.1740218
273.0893054
273.1197517
273.0415716
273.0425276
273.0115572
273.002726
272.9810859
272.9741912
272.9752235
272.9758279
272.9830081
272.9831224
272.9910219
271.8258269
270.9402419
280.3280836
274.685194
283.7045481
278.3858954
284.5899208
280.0904332
282.4523286
278.3433898
278.5092658
274.7611058
274.2186589
270.8435965
270.6672131
267.836362
269.0172203
267.1552236
270.2354717
269.1702644
272.8146912
287.341307
273.2559587
273.0289114
273.0505444
272.9504545
272.9428952
273.0591487
273.0711076
272.9864906
272.9580677
273.004548
273.0244418
272.9962193
272.9701648
272.9781137
272.9943985
272.9943119
272.9898031
272.9589518
262.1511241
287.5059921
273.2554374
273.02428
273.0182678
272.9973206
272.9898269
273.0392641
273.0421047
272.9983105
272.9734104
272.9964608
273.0084855
272.9898593
272.9726859
272.9757655
272.9861579
272.9884038
272.9867302
272.9565449
261.9302177
287.7573486
273.2657059
273.0137538
272.9945634
273.0318603
273.0271037
273.0124122
273.013994
273.0155706
272.9962637
272.9878809
272.9930284
272.9890492