/*--------------------------------*- C++ -*----------------------------------*\
| =========                 |                                                 |
| \\      /  F ield         | OpenFOAM: The Open Source CFD Toolbox           |
|  \\    /   O peration     | Version:  5.x                                   |
|   \\  /    A nd           | Web:      www.OpenFOAM.org                      |
|    \\/     M anipulation  |                                                 |
\*---------------------------------------------------------------------------*/
FoamFile
{
    version     2.0;
    format      ascii;
    class       volScalarField;
    location    "1.6";
    object      T;
}
// * * * * * * * * * * * * * * * * * * * * * * * * * * * * * * * * * * * * * //

dimensions      [0 0 0 1 0 0 0];

internalField   nonuniform List<scalar> 
30538
(
273.7459334
272.9844986
272.9725622
272.9655283
272.9613913
272.9583782
272.9584279
272.9643786
272.977825
272.9971319
273.0200951
273.0419736
273.0602762
273.0718853
273.0769831
273.0757525
273.0683911
273.0548732
273.0346338
273.052164
273.7399416
272.9818058
272.9692019
272.961783
272.9577063
272.9551663
272.9558873
272.9624546
272.9764383
272.996051
273.0191991
273.0411678
273.0594006
273.0708267
273.075698
273.0742862
273.0667782
273.0532618
273.0331024
273.047747
273.7292375
272.9790242
272.9652266
272.9571209
272.9531598
272.951451
272.9533583
272.9610399
272.9760124
272.9961561
273.0196418
273.0417362
273.0598581
273.070976
273.0754768
273.0737319
273.0659621
273.0524547
273.0325505
273.0403787
273.7147316
272.9755561
272.9602694
272.9513035
272.9475056
272.9468041
272.9502434
272.9593055
272.9754606
272.9962934
273.020144
273.0423454
273.0602999
273.0711163
273.0751914
273.0730232
273.0649446
273.0514508
273.0318524
273.0298027
273.695249
272.9720519
272.9552748
272.9454718
272.9418766
272.9422309
272.9472325
272.9576797
272.9749801
272.9964553
273.0205618
273.0427383
273.0604731
273.0710403
273.0747347
273.0721527
273.0637792
273.0503394
273.0310705
273.0166978
273.6753997
272.9691384
272.9511802
272.9407647
272.9374809
272.9388056
272.9451087
272.9566711
272.9748262
272.996664
273.0207095
273.0426323
273.0600411
273.0703602
273.0738232
273.0709434
273.0623952
273.0490766
273.0301839
273.0014264
273.6516539
272.9673833
272.9488613
272.9382323
272.9353908
272.9375099
272.9447524
272.9568925
272.9752124
272.9968368
273.0203394
273.041678
273.0585819
273.0686545
273.0720023
273.0690521
273.0605353
273.0475042
273.0291385
272.9858972
273.6297478
272.9671571
272.9488096
272.9385516
272.93626
272.9389536
272.9466186
272.9586305
272.9762612
272.9968843
273.0191943
273.0394701
273.0556551
273.065456
273.0688459
273.0660805
273.0578969
273.0453933
273.0278016
272.9697291
273.602431
272.9683709
272.9510204
272.9417734
272.9402079
272.9432744
272.9508022
272.9619501
272.9779838
272.99675
273.0171174
273.0357607
273.0509467
273.0604036
273.0639409
273.061666
273.0542208
273.042602
273.0260944
272.9547087
273.5787135
272.9708633
272.9551994
272.9475326
272.9468728
272.9501268
272.9570385
272.9667213
272.9803517
272.9964617
273.0141349
273.0306037
273.044518
273.0535738
273.0573956
273.0558285
273.0494253
273.0389954
273.0239262
272.9399551
273.5456486
272.9742574
272.9607958
272.9550694
272.9554499
272.9588075
272.9648365
272.9726178
272.9832905
272.9961034
273.0104678
273.0243663
273.0366691
273.0451555
273.0492796
273.0486085
273.0435232
273.0346164
273.0213229
272.9286932
273.5149937
272.9781486
272.9671467
272.9634491
272.9648941
272.9683749
272.9734172
272.9791547
272.9866232
272.9957976
273.0065248
273.017634
273.0279758
273.0356917
273.0400271
273.0403357
273.0367322
273.0295868
273.018354
272.918832
273.4718155
272.9821032
272.9736176
272.9717804
272.9742093
272.9778389
272.9819409
272.985706
272.9901327
272.995786
273.0029245
273.0111377
273.0193321
273.0260211
273.0303411
273.0315209
273.0294011
273.0241234
273.015133
272.914838
273.4303998
272.9858846
272.9797185
272.97943
272.9826094
272.986308
272.9895775
272.9916978
272.9935598
272.9961562
273.0001459
273.0055013
273.0115271
273.0169945
273.0210169
273.0227987
273.0219901
273.0184977
273.0117902
272.9115074
273.3750031
272.9893018
272.9851862
272.9859468
272.9895348
272.9931272
272.9957091
272.9965993
272.9966345
272.9969212
272.9983483
273.0012036
273.005181
273.0093211
273.012778
273.0148217
273.0150044
273.013094
273.008542
272.9166713
273.3215398
272.9922336
272.9896947
272.991006
272.9945837
272.9979048
272.9999768
273.000142
272.9991135
272.9979072
272.9975145
272.9984412
273.0006605
273.0034875
273.0061937
273.008199
273.0090117
273.0083346
273.0056316
272.9210925
273.2546049
272.9946093
272.9931344
272.994545
272.9977173
273.0005904
273.0022851
273.0021724
273.0007478
272.9988707
272.9974733
272.9971388
272.9980207
272.9997087
273.0016112
273.003338
273.0044305
273.0045631
273.0032897
272.9370932
273.189661
272.9965077
272.9956963
272.9968811
272.999351
273.0016015
273.0029207
273.0027769
273.0014571
272.9996169
272.9979915
272.997116
272.9972383
272.9980559
272.9992175
273.0004859
273.0015204
273.0020243
273.0016633
272.9493865
273.113739
272.9983855
272.9985037
272.9997111
273.0017682
273.0034162
273.0042533
273.0038553
273.0024134
273.0007321
272.9991822
272.9983709
272.9979262
272.9981404
272.9982296
272.9991685
272.9995785
273.0005379
273.0005715
272.9736385
273.1147735
273.2415889
273.3617426
273.5024891
273.5670558
273.648686
273.6265163
273.6324252
273.5210584
273.4780522
273.3017864
273.2622239
273.0581355
273.0793251
272.8752402
272.9872799
272.7995037
273.0015384
272.8351641
273.0760615
273.9111334
272.9858818
272.9723557
272.9636255
272.9576801
272.9532481
272.9528995
272.9584221
272.9714287
272.9902895
273.0129567
273.0351028
273.0543765
273.0672693
273.0737243
273.0735677
273.0667891
273.0536357
273.0327572
272.946991
273.9060461
272.9834149
272.9693742
272.9603298
272.9544012
272.9503719
272.9506097
272.9567581
272.9702914
272.9894635
273.012293
273.0344621
273.0535978
273.0662806
273.0724795
273.0721668
273.0652743
273.0521383
273.0313734
272.9413866
273.8968554
272.9810465
272.9660622
272.9564524
272.9505691
272.9472517
272.9485521
272.9557987
272.9702809
272.9900043
273.0130972
273.0352791
273.0541462
273.0664637
273.072246
273.0716547
273.0645753
273.0514818
273.0309457
272.9318768
273.8841014
272.978097
272.9619358
272.9516091
272.9458422
272.9434042
272.9460346
272.9546086
272.9702608
272.9906436
273.0140018
273.036107
273.0545864
273.0664591
273.0717997
273.0708556
273.0635912
273.0505816
273.0303437
272.9186299
273.8665547
272.9751133
272.9578058
272.9467777
272.9412185
272.9396711
272.9436693
272.9535209
272.9703083
272.9912647
273.014737
273.0365829
273.0545574
273.0659719
273.0709233
273.069634
273.0622758
273.0494398
273.0295807
272.9023434
273.8470047
272.9726472
272.9544672
272.9429673
272.9376905
272.9370003
272.9421552
272.9530528
272.9706038
272.9917972
273.0150486
273.0363574
273.0536892
273.0646513
273.0692837
273.0677844
273.0604878
273.047971
273.0286278
272.8846976
273.8231614
272.9711023
272.9525773
272.9409754
272.9361137
272.9362342
272.942315
272.9537197
272.9713542
272.9921778
273.0146983
273.0351165
273.0516361
273.0621135
273.0665293
273.0650498
273.0580168
273.0460165
273.0274122
272.8665132
273.7984083
272.970899
272.9527169
272.9416228
272.937396
272.9381922
272.9446488
272.9558627
272.9727197
272.9923841
273.0135168
273.0326192
273.048122
273.0580768
273.0624041
273.0611762
273.0546452
273.0434238
273.0258723
272.8504128
273.7672995
272.9720452
272.9549593
272.9449759
272.9416204
272.9428796
272.9492097
272.9595594
272.9747758
272.99247
273.0114902
273.0288065
273.0430534
273.0524212
273.0567537
273.0560017
273.0502779
273.040128
273.0239358
272.835288
273.7360815
272.974449
272.9591223
272.9507826
272.9484586
272.9500504
272.9558462
272.9647663
272.9775722
272.9925391
273.0087808
273.0238565
273.0366399
273.0453766
273.0498069
273.0497004
273.0450118
273.0361535
273.0216199
272.8249343
273.6952325
272.9777781
272.9647232
272.9583984
272.9572547
272.9591453
272.9641532
272.9712157
272.9810758
272.992747
273.0056856
273.0181599
273.0292346
273.0372367
273.0417824
273.0424388
273.0389627
273.0316033
273.0189682
272.8175491
273.6529328
272.9816343
272.9711539
272.9669659
272.9670814
272.9692893
272.9734132
272.9784508
272.9851458
272.9932492
273.0025834
273.0122352
273.0213586
273.0284965
273.0331062
273.0345514
273.0323958
273.0266496
273.0161043
272.8170346
273.598421
272.9855709
272.9777684
272.9755949
272.976925
272.9794566
272.9827354
272.9858056
272.989475
272.9941085
272.999964
273.0067323
273.0137861
273.019921
273.0244093
273.0264928
273.0255792
273.0214702
273.0130933
272.8209665
273.5424594
272.9893059
272.984002
272.9835696
272.9858931
272.9886961
272.9912169
272.9926163
272.9936813
272.9952945
272.9980958
273.0021565
273.0071886
273.0121864
273.0163238
273.0187819
273.0188774
273.0163021
273.0100829
272.830438
273.4727749
272.9925808
272.9894576
272.9902853
272.9932721
272.9961781
272.9980965
272.9982425
272.997409
272.9967165
272.9970484
272.9988363
273.0020228
273.0058161
273.0093607
273.0119069
273.0127164
273.0114435
273.0072047
272.8459486
273.4025253
272.9952334
272.993758
272.9953261
272.9985609
273.0014052
273.0028722
273.0022708
273.0003237
272.9981483
272.9967874
272.9968766
272.9985535
273.0011705
273.0040051
273.0063509
273.0075814
273.0072567
273.0047
272.8647162
273.3188849
272.9971521
272.9967093
272.9985072
273.0015513
273.004118
273.0052783
273.0044076
273.0020948
272.9993323
272.9971327
272.9961816
272.996744
272.9983502
273.00042
273.0023878
273.0037146
273.0039879
273.0027066
272.891689
273.2356954
272.9984127
272.9984886
273.000078
273.0025515
273.0046238
273.0055068
273.0047036
273.0026273
273.0000677
272.9978402
272.9965459
272.9964981
272.997341
272.9986809
273.0001221
273.0012692
273.0017867
273.0013281
272.9181796
273.1416094
272.9995193
273.0003995
273.0019037
273.0041988
273.0056445
273.0062703
273.0052659
273.0032912
273.0010153
272.9990346
272.9979665
272.9972953
272.9975137
272.9975069
272.9986834
272.9990322
273.0002191
273.0001486
272.953588
273.1658287
273.2741786
273.4733821
273.5931966
273.7206119
273.7641478
273.7785449
273.7327195
273.6237889
273.5324083
273.3297647
273.2630763
273.0141611
273.0397358
272.7812084
272.93898
272.6954573
272.9800993
272.7575086
273.0960571
274.1406157
272.9890526
272.9736394
272.9626418
272.9543127
272.9479302
272.9472578
272.9524124
272.9650484
272.9834878
273.0059798
273.0287231
273.0495869
273.0645839
273.0730342
273.0741509
273.0676548
273.0543312
273.0320433
272.7330764
274.136751
272.9869396
272.9712037
272.9599373
272.9516557
272.945528
272.9453344
272.9510403
272.9641483
272.9828796
273.0054706
273.0281194
273.048736
273.0634239
273.0716219
273.0726325
273.0661269
273.0528905
273.0306679
272.7261637
274.1307605
272.9852208
272.9688765
272.9571524
272.948941
272.943281
272.9439637
272.9506488
272.9645914
272.9838067
273.0065281
273.0289565
273.0490866
273.0632263
273.0709939
273.0718381
273.0653604
273.0522976
273.0303516
272.7127455
274.1206129
272.983049
272.9659512
272.9536893
272.9455797
272.9405571
272.9423192
272.9501974
272.9651512
272.9848845
273.007654
273.0296706
273.0490679
273.0625274
273.0698016
273.0704753
273.0641134
273.0513449
273.0298156
272.6961165
274.1061748
272.9808068
272.9629957
272.9502623
272.9423156
272.9380431
272.9408759
272.9499006
272.9657871
272.9858812
273.0084633
273.0298073
273.0482563
273.0609723
273.0677693
273.0683157
273.0622295
273.0499251
273.0289822
272.6745439
274.0878794
272.9788867
272.9606079
272.9476242
272.9399515
272.9364531
272.9402593
272.9501194
272.966596
272.9866496
273.008635
273.0289867
273.0463009
273.0582439
273.0646161
273.0651435
273.0595315
273.0479042
273.0278106
272.65337
274.0630137
272.9776571
272.9593453
272.9464942
272.9393054
272.9366159
272.9411249
272.951348
272.9677863
272.9871477
273.0079903
273.0269875
273.0429948
273.0541301
273.0601684
273.0608243
273.0558719
273.0451796
273.0262415
272.6327266
274.0361785
272.9774778
272.9597872
272.9475775
272.9411554
272.9392003
272.9440048
272.953969
272.9695297
272.9874651
273.0065361
273.0238045
273.0383285
273.0486015
273.0543847
273.0553816
273.0512539
273.0417197
273.0242558
272.6150773
273.997979
272.9785238
272.9621132
272.9511236
272.9456577
272.9443679
272.9490333
272.9581334
272.971978
272.9877644
273.0044837
273.0196503
273.0325335
273.0418814
273.0474793
273.0489514
273.0457761
273.0375843
273.0218888
272.6043679
273.9609919
272.9807886
272.9662137
272.9570078
272.9526728
272.9519673
272.9561318
272.9638309
272.9752503
272.9882475
273.0020964
273.0148788
273.0260109
273.0344017
273.0398433
273.0418295
273.0396787
273.0329304
273.0192384
272.5980021
273.9048633
272.9839669
272.9717614
272.9647316
272.9617135
272.9615268
272.9649531
272.9708344
272.9793708
272.9891405
272.9997402
273.0099109
273.0191803
273.026556
273.0318252
273.034303
273.033174
273.0279279
273.0163942
272.6044265
273.8537079
272.9877513
272.9782709
272.9735431
272.9719664
272.9722812
272.9748552
272.9787396
272.9841838
272.9905524
272.9977452
273.0051831
273.0125106
273.0188522
273.0238911
273.0267577
273.0265777
273.0227817
273.0134505
272.6138087
273.7765865
272.9916379
272.985076
272.9825708
272.9824171
272.9832677
272.9850391
272.9869458
272.989401
272.9924399
272.9963539
273.0011245
273.006524
273.0118034
273.0164871
273.0195852
273.0201974
273.0177192
273.0105061
272.6406768
273.7083729
272.9953511
272.9915003
272.9909785
272.9920753
272.9934147
272.99452
272.994707
272.9945304
272.9946558
272.9956997
272.9980636
273.00166
273.0058665
273.0100583
273.0131603
273.0143697
273.0130057
273.00774
272.6651076
273.6097747
272.998418
272.9969577
272.9979418
273.0000064
273.001703
273.0023221
273.0011848
272.9990454
272.9969077
272.9957261
272.9961157
272.9981708
273.0013456
273.0049073
273.0078365
273.0093878
273.0088757
273.0053009
272.7103202
273.5241267
273.0006587
273.0008813
273.0028607
273.0054554
273.0073609
273.0076343
273.0057281
273.0024159
272.9988975
272.9962777
272.9952931
272.9961518
272.9983867
273.0012703
273.0038654
273.0054986
273.005553
273.003348
272.74715
273.407603
273.0018369
273.0030492
273.0054116
273.008095
273.0099624
273.0100613
273.0079365
273.0043301
273.0003614
272.9971586
272.9954552
272.9955165
272.9969479
272.9991223
273.0012155
273.0027125
273.0030911
273.0019158
272.8059253
273.3071027
273.0020744
273.0035571
273.0057137
273.0080108
273.0095985
273.0096112
273.0077593
273.0046087
273.001072
272.998099
272.9963192
272.9959968
272.9968217
272.9983101
272.9998237
273.0010049
273.0014757
273.000972
272.8511396
273.1780121
273.0020347
273.0038575
273.0062173
273.0082031
273.0097065
273.0093291
273.0077454
273.0047602
273.0018057
272.9992303
272.9978091
272.9970269
272.9971081
272.9973145
272.9983422
272.9989452
272.9999522
273.0000345
272.9186234
273.1485469
273.4181377
273.5372995
273.8166325
273.8370694
273.9996222
273.8914026
273.9015783
273.6859936
273.5948014
273.3215172
273.2115627
272.937303
272.8952903
272.6636791
272.7528428
272.5909264
272.8278034
272.719794
273.0153542
274.687721
272.9945501
272.9763362
272.9639282
272.9546319
272.9472556
272.9461598
272.9509479
272.9629752
272.9808452
273.0030771
273.0265506
273.0489114
273.0659917
273.0759847
273.0777162
273.0707279
273.0563967
273.0314087
272.3303993
274.6879792
272.9927544
272.9743453
272.9617256
272.9523782
272.9451628
272.9444289
272.949659
272.9620935
272.9802075
273.0024549
273.0256677
273.0476452
273.0643577
273.0741681
273.0759272
273.0691194
273.0550015
273.0299846
272.3171684
274.6895626
272.9915922
272.9728047
272.9598223
272.9504009
272.9434782
272.943419
272.9494665
272.9626044
272.981083
273.0032588
273.0259575
273.0471964
273.0632387
273.0727181
273.0745564
273.0681329
273.0544389
273.0298049
272.2925114
274.6889671
272.9900835
272.9708579
272.9574679
272.9480092
272.9414848
272.9422555
272.9493186
272.9632861
272.9820946
273.0040143
273.0258879
273.0460528
273.0612083
273.0702929
273.0722898
273.0664555
273.0534074
273.0293951
272.2607455
274.6839663
272.9884789
272.9688817
272.9551781
272.9457767
272.9397507
272.9413661
272.9494202
272.964096
272.9829975
273.0043335
273.0250416
273.0438498
273.0579911
273.0666757
273.0689228
273.0638754
273.0517206
273.0286187
272.2231538
274.6713046
272.9870509
272.9673207
272.953539
272.9443672
272.9389304
272.941313
272.9500634
272.9650794
272.9836212
273.0039234
273.0231314
273.0403517
273.0534191
273.0617125
273.064294
273.0602122
273.0492067
273.0273745
272.1883294
274.6479591
272.9861236
272.9666686
272.9531958
272.9445086
272.9397296
272.9426522
272.9516367
272.9664001
272.9839514
273.0027114
273.0201018
273.0355664
273.0474948
273.0554272
273.0584191
273.0553925
273.0457464
273.0255571
272.1564484
274.6136651
272.9860412
272.9674438
272.9547708
272.9468333
272.9427197
272.9458714
272.9545018
272.9682401
272.984156
273.0008306
273.0161242
273.0297127
273.0404557
273.0480251
273.0514601
273.0495079
273.0413709
273.0231903
272.1375495
274.5633462
272.9870524
272.9699443
272.9586111
272.9516088
272.9481291
272.9511308
272.9588303
272.9708117
272.9844665
272.9986263
273.0115865
273.0232327
273.0327492
273.0399175
273.0437308
273.0428072
273.0362368
273.0203416
272.1286922
274.5013838
272.9891432
272.9741143
272.9646514
272.9587266
272.955863
272.9584045
272.9646511
272.974277
272.9851584
272.9964528
273.0069351
273.0166091
273.0248743
273.0315922
273.0356534
273.0356479
273.0306036
273.0171917
272.1411032
274.4174774
272.9920697
272.9797526
272.9725146
272.9678225
272.9655603
272.9673856
272.9717747
272.9786506
272.9864579
272.9946841
273.0026017
273.0102999
273.0173183
273.023492
273.0276429
273.0283812
273.0247539
273.0138507
272.1657674
274.324925
272.9956157
272.9864468
272.9815519
272.9782426
272.9765741
272.9775216
272.9798764
272.9838117
272.9884318
272.9935694
272.9989538
273.0047403
273.0105495
273.0160826
273.0201329
273.0214104
273.0189963
273.0105298
272.2124823
274.2069591
272.9993388
272.9934826
272.9908951
272.9890431
272.9879268
272.9879826
272.9883341
272.9893921
272.9909262
272.993175
272.9962075
273.0002429
273.0048841
273.0096711
273.0134348
273.0150055
273.0135978
273.0073386
272.2712424
274.0856451
273.002843
273.0000937
272.9996009
272.9991212
272.9985225
272.997784
272.9963702
272.9948704
272.9937054
272.9934616
272.9944988
272.9970107
273.0005432
273.0045404
273.0078842
273.0095411
273.0088825
273.0045684
272.3467148
273.9359285
273.0055286
273.005455
273.006625
273.0073155
273.0071463
273.0058213
273.0030462
272.9996086
272.996408
272.9942986
272.9938017
272.9950743
272.9976574
273.0008872
273.0037054
273.0052857
273.0051429
273.0023525
272.4327066
273.7917476
273.0071205
273.0088921
273.0112049
273.0126874
273.0128736
273.0112255
273.0076668
273.0031158
272.9987287
272.9954909
272.9939914
272.9943435
272.9961392
272.9986477
273.0009345
273.0023432
273.0024983
273.0008336
272.5257229
273.6178421
273.0073288
273.0101297
273.0129154
273.0147665
273.0151432
273.0134779
273.0097968
273.0050488
273.0003852
272.9967879
272.9948284
272.99459
272.9957608
272.9976455
272.9994461
273.0005888
273.0008816
272.9999828
272.6298537
273.4579965
273.006281
273.0091565
273.0117263
273.0134538
273.0138886
273.0124766
273.0093239
273.0052295
273.0011752
272.9979616
272.9960866
272.9956409
272.9963339
272.9976643
272.9989199
272.9997768
273.0000687
272.9996888
272.7297316
273.2686098
273.0048654
273.0084417
273.0111742
273.0137133
273.0140911
273.0131328
273.0098733
273.0060253
273.0021942
272.9992743
272.997739
272.9966676
272.9966384
272.9965973
272.9975787
272.997947
272.999061
272.9992619
272.8434166
273.3130315
273.5275667
273.8991123
274.1174732
274.3460694
274.3851736
274.3994213
274.2336056
274.0264155
273.7684141
273.4077041
273.1952579
272.768656
272.7319968
272.3105204
272.5514986
272.2004622
272.7233742
272.4431195
273.0741099
275.2622245
273.0010589
272.9801696
272.968191
272.9593191
272.9523903
272.9515339
272.9561835
272.9674011
272.9840761
273.0055151
273.0289102
273.0516949
273.0697147
273.080413
273.0822107
273.0743557
273.0587818
273.0309517
271.751597
275.2668419
272.9994587
272.9784329
272.9662143
272.9572327
272.9504149
272.9498002
272.9548014
272.966351
272.9831951
273.0045283
273.02751
273.0498374
273.0675101
273.0781105
273.0800924
273.0726012
273.0573763
273.0294061
271.7318485
275.2806286
272.9986851
272.9773402
272.9647258
272.9555469
272.9489336
272.9487942
272.9544814
272.9665861
272.9836306
273.0046556
273.0268787
273.0483413
273.0653515
273.0757721
273.0781075
273.0713363
273.056779
273.0293971
271.6874163
275.290332
272.9975974
272.975949
272.9628835
272.953531
272.9471943
272.9476936
272.9542301
272.96696
272.98411
273.0045634
273.0256392
273.0458216
273.0619112
273.0721311
273.0750039
273.0692553
273.0556691
273.0292107
271.6386951
275.299839
272.9964443
272.9745409
272.9611402
272.9517131
272.9457277
272.946938
272.9543039
272.967483
272.9844638
273.0039897
273.0235211
273.0421244
273.0571256
273.0671481
273.0706755
273.0661784
273.0538471
273.0286395
271.5747666
275.2950457
272.9953498
272.9735038
272.9600208
272.9507232
272.945174
272.947048
272.9549535
272.9682012
272.9845834
273.0027141
273.0203612
273.0371459
273.0509903
273.0608063
273.0650407
273.0619034
273.0510849
273.0275298
271.5231298
275.2757069
272.9946767
272.9732904
272.9601436
272.9512288
272.9461844
272.9484769
272.956497
272.9692395
272.9844974
273.0007961
273.0162898
273.0311456
273.0437108
273.0532547
273.0581549
273.0563228
273.0471896
273.0256974
271.4769785
275.2403005
272.9947571
272.9744126
272.9620705
272.9537931
272.9492544
272.951665
272.9591844
272.970775
272.9843427
272.9983506
273.0114545
273.024388
273.0356692
273.0447955
273.0501926
273.0495448
273.0421535
273.0231251
271.4523655
275.1739419
272.9957666
272.9771899
272.9661791
272.9587019
272.9545846
272.9567084
272.9631384
272.9730152
272.9843638
272.9958728
273.0065809
273.0174619
273.0273213
273.0358813
273.0415024
273.041823
273.0361258
273.0198645
271.4552686
275.0970907
272.9977693
272.98159
272.9723997
272.9658518
272.9620828
272.9635511
272.9683932
272.9760918
272.984837
272.9936824
273.0020464
273.0108156
273.019214
273.0269958
273.03253
273.033571
273.0294131
273.016111
271.4800822
274.9728587
273.0004459
272.9874693
272.9804078
272.9748916
272.9713815
272.9719197
272.9748334
272.979989
272.9859227
272.9921168
272.998224
273.0049155
273.0118167
273.0186321
273.0237815
273.0252501
273.0224361
273.0120863
271.5481992
274.8520946
273.0038755
272.9943862
272.9896038
272.9851739
272.9818735
272.9813067
272.9821529
272.9845777
272.9876677
272.991281
272.9952857
273.0001113
273.0055477
273.0112408
273.0157514
273.0173615
273.0156299
273.0081171
271.6268618
274.6705926
273.0073012
273.0015843
272.9990712
272.995785
272.9926725
272.9909734
272.9897408
272.9895689
272.989992
272.9912254
272.9933191
272.996557
273.0006469
273.0051521
273.0088389
273.0103321
273.0094317
273.0043811
271.7566681
274.5117747
273.0105211
273.0081997
273.0077449
273.0056405
273.0027322
272.9999275
272.9968894
272.9944487
272.9926177
272.9918529
272.9923589
272.9942793
272.9972064
273.0005948
273.0034056
273.0046437
273.0042909
273.0012258
271.877737
274.2826929
273.0125283
273.0132931
273.0144835
273.0135248
273.0108236
273.0072588
273.0028523
272.9987022
272.9951961
272.9929795
272.9923103
272.9931936
272.9951603
272.997619
272.9996496
273.0005818
273.0005436
272.9988747
272.0517586
274.095654
273.0133401
273.0160915
273.0184673
273.0183555
273.0159923
273.0120982
273.0069794
273.0018679
272.9974294
272.9943743
272.9929725
272.9930908
272.9943147
272.9960535
272.9974291
272.9980906
272.9982333
272.9975502
272.1965575
273.8367834
273.0123868
273.0163354
273.0191981
273.0196677
273.017723
273.0140022
273.0088961
273.0036918
272.9990979
272.9958327
272.9941383
272.9938146
272.9945061
272.9957015
272.9966324
272.9970681
272.9973002
272.9971665
272.3924419
273.6318631
273.0100487
273.0138938
273.0165489
273.017218
273.0158156
273.0127572
273.0084713
273.0040136
273.0000706
272.9972059
272.9956495
272.9951995
272.9955528
272.9963453
272.9969221
272.9972087
272.9973799
272.9975508
272.5444637
273.3568485
273.0078571
273.012111
273.0165923
273.0177449
273.0182316
273.0147325
273.010918
273.0056643
273.0017354
272.9988164
272.9973843
272.9962257
272.9957648
272.9956224
272.9959688
272.99636
272.9972052
272.9979663
272.7478382
273.2822681
273.8638385
274.0654387
274.6612677
274.6541653
274.9714464
274.7016631
274.646627
274.1906763
273.9161732
273.3912236
273.0665678
272.5711678
272.3597367
271.9842229
272.0479628
271.8917406
272.3187242
272.3235578
272.870521
276.3355691
273.0118494
272.9842438
272.974266
272.9670708
272.9617874
272.9613246
272.9655313
272.9750937
272.9896681
273.0087987
273.030397
273.0515875
273.0688564
273.0792122
273.0809456
273.072885
273.0571765
273.029083
270.7750539
276.3537756
273.0103809
272.9824981
272.9721876
272.9648493
272.9596071
272.9593267
272.9639433
272.9738669
272.9886325
273.0076352
273.0286991
273.0494475
273.0664198
273.0767771
273.0787897
273.0711871
273.0558717
273.0273068
270.7292589
276.3944331
273.0098916
272.9813832
272.9705468
272.9629504
272.9577752
272.9579887
272.9633395
272.9738693
272.988854
273.0074107
273.0275898
273.047468
273.0638211
273.0741967
273.0767633
273.070048
273.0555042
273.027695
270.6389244
276.4355965
273.0091494
272.9799524
272.9685187
272.9606438
272.9556081
272.956545
272.9628075
272.9739954
272.9890627
273.0068838
273.0257985
273.0444314
273.059928
273.0702938
273.0736172
273.0681414
273.0547054
273.0280122
270.5262235
276.4819117
273.0084071
272.9785276
272.9666167
272.9585405
272.9537525
272.9554261
272.9625423
272.9742453
272.9891043
273.0059208
273.0232424
273.0403177
273.0547897
273.0651357
273.0693016
273.065245
273.0532104
273.0280495
270.3949625
276.5027831
273.0076572
272.9775638
272.9654638
272.9573739
272.9529068
272.9551665
272.9628135
272.9746318
272.9888789
273.0043229
273.0198401
273.03511
273.0484183
273.0586827
273.0637063
273.0611167
273.0506916
273.0275071
270.2845434
276.5036339
273.0072771
272.9775665
272.9657681
272.9577994
272.9536784
272.9562354
272.9638898
272.9752987
272.9884328
273.0021609
273.0156268
273.0289268
273.0409988
273.0510594
273.0568231
273.055575
273.0468688
273.0261338
270.1910496
276.4630282
273.0074021
272.9790847
272.9680464
272.9604381
272.9565165
272.9589012
272.9659659
272.976303
272.9878117
272.9996124
273.010934
273.0221013
273.0328608
273.0425311
273.0487548
273.0486537
273.0416784
273.0237595
270.1520363
276.3799858
273.0082798
272.9824296
272.9725302
272.9653854
272.9615041
272.9632644
272.9691122
272.9777739
272.9873069
272.9969048
273.0059647
273.0150587
273.0244641
273.0334878
273.0398052
273.0405331
273.0351976
273.0204214
270.1568409
276.252952
273.0099774
272.9874513
272.9790823
272.9725405
272.9685349
272.9692277
272.9733276
272.9798073
272.9870551
272.9942543
273.0011441
273.0083187
273.0163014
273.0244351
273.0304423
273.0316535
273.0277836
273.0163107
270.2314235
276.0689354
273.0122799
272.9938623
272.9873976
272.9815136
272.9772304
272.9765054
272.9784218
272.9824209
272.9871667
272.9920094
272.9968867
273.0023591
273.008886
273.015865
273.021144
273.0224927
273.0199075
273.0116858
270.3576873
275.8539745
273.0150232
273.0011656
272.9967729
272.9915891
272.9869132
272.9846403
272.9841083
272.9855224
272.9877893
272.9904883
272.9936041
272.9975811
273.0026643
273.008259
273.0124782
273.0137069
273.0121557
273.0068654
270.5504865
275.5770964
273.0175879
273.0085402
273.0062168
273.001767
272.9966364
272.9928599
272.9899934
272.988904
272.9888778
272.9897293
272.9914044
272.9941042
272.9978455
273.001987
273.0050041
273.0058847
273.0051347
273.0022386
270.7842527
275.295069
273.0197094
273.0150635
273.0145983
273.0109413
273.0054238
273.0003262
272.995506
272.9923237
272.990396
272.9897979
272.9903416
272.9920387
272.9945652
272.9973385
272.9992073
272.9996705
272.9994638
272.9984579
271.0595351
274.9504005
273.0204538
273.019748
273.0207765
273.0179579
273.0122773
273.0063143
273.0000725
272.9954637
272.9922207
272.9905807
272.9902569
272.9910978
272.9925955
272.994301
272.9953033
272.9954081
272.9955238
272.9957492
271.3558373
274.6341744
273.0198354
273.0218482
273.0239323
273.0218847
273.0164865
273.0101463
273.0033167
272.9980255
272.9940968
272.9918616
272.990955
272.9911584
272.9918997
272.9928461
272.9932346
272.993121
272.9933659
272.994349
271.6521109
274.2537858
273.0173471
273.0211231
273.0236453
273.0223026
273.0175754
273.0115858
273.0050381
272.9997915
272.9958249
272.9934253
272.9922721
272.9920559
272.9923581
272.9928108
272.9929131
272.9926648
272.9929525
272.9941373
271.9681598
273.9252763
273.0134765
273.0174131
273.0197755
273.018972
273.0153463
273.010461
273.0050977
273.000669
272.9973137
272.9952028
272.994102
272.993741
272.9938157
272.9940512
272.9940184
272.9937976
272.9939678
272.9951368
272.2539048
273.5319928
273.0104706
273.0171936
273.022095
273.0249502
273.0230471
273.0192154
273.0120857
273.0059143
273.0007367
272.9976721
272.9961623
272.9946206
272.9940153
272.9939372
272.993794
272.9946475
272.9948437
272.9967513
272.5720178
273.5809934
274.0946889
274.7609998
275.2902749
275.6826098
275.795919
275.7563356
275.3378555
274.8613977
274.2395414
273.5251682
272.9726786
272.1677775
271.9258604
271.1673307
271.5117233
270.9986254
272.02545
271.7157974
272.9630714
277.4641863
273.0250815
272.9880741
272.9806699
272.9761034
272.9731716
272.9733476
272.9765753
272.9836486
272.9944563
273.0088596
273.025909
273.0433848
273.0588128
273.0688209
273.0712909
273.0642695
273.0500973
273.0264847
269.5082106
277.5041622
273.0237475
272.986195
272.9783808
272.9736435
272.970673
272.9710762
272.9748329
272.9824086
272.993428
273.0078734
273.0244202
273.0415447
273.056729
273.0668147
273.0695726
273.0628979
273.0491089
273.0244954
269.4312701
277.5939352
273.0237408
272.9848045
272.9764178
272.9712959
272.968314
272.9693081
272.9740038
272.9824023