/*--------------------------------*- C++ -*----------------------------------*\
| =========                 |                                                 |
| \\      /  F ield         | OpenFOAM: The Open Source CFD Toolbox           |
|  \\    /   O peration     | Version:  5.x                                   |
|   \\  /    A nd           | Web:      www.OpenFOAM.org                      |
|    \\/     M anipulation  |                                                 |
\*---------------------------------------------------------------------------*/
FoamFile
{
    version     2.0;
    format      ascii;
    class       volVectorField;
    location    "1.6";
    object      U;
}
// * * * * * * * * * * * * * * * * * * * * * * * * * * * * * * * * * * * * * //

dimensions      [0 1 -1 0 0 0 0];

internalField   nonuniform List<vector> 
30538
(
(0.03361357011 -0.0002864275441 0.003279701268)
(0.04054077388 -0.00086970539 0.006847983808)
(0.04372201469 -0.001051207142 0.01070636295)
(0.04648308597 -0.001131104095 0.01048836548)
(0.03484821506 -0.0008125639228 0.01043750866)
(0.01416028701 -0.0006752968647 0.007176539493)
(-0.02426312103 -7.750481526e-05 0.005686279425)
(-0.06054442784 0.0007239298435 0.001570278776)
(-0.0933520429 0.002303920767 2.607782498e-05)
(-0.1059141752 0.00424202602 -0.00303333567)
(-0.1010860394 0.006675551381 -0.004450745867)
(-0.07502820133 0.008672639348 -0.00605366168)
(-0.03658735731 0.01001276435 -0.007124586903)
(0.003451336572 0.009930283975 -0.006547851206)
(0.0381820427 0.008872221009 -0.006867275464)
(0.05744984852 0.006770402247 -0.00405814591)
(0.06168178754 0.004682053798 -0.004359864571)
(0.05252919806 0.002664637263 -0.001030042543)
(0.04044784383 0.001352627274 -0.002191691576)
(0.03061186518 0.0002089747064 0.0006508669425)
(0.03283614325 -0.0007099511481 0.003206353093)
(0.03998950374 -0.002300961259 0.006657709517)
(0.04354686377 -0.002694101849 0.01042310309)
(0.04665416981 -0.002950571466 0.01013523065)
(0.03516313333 -0.002086217535 0.01007522823)
(0.01466323513 -0.001820551168 0.006828188256)
(-0.02328998933 -0.0002609520842 0.005395616419)
(-0.05887033179 0.002054498874 0.00132612132)
(-0.09087115892 0.006526275614 -0.0001516575534)
(-0.1028345504 0.01225240981 -0.003216355069)
(-0.09797331081 0.01916173826 -0.004659441899)
(-0.07268170862 0.02501484717 -0.006314384977)
(-0.03570086387 0.02873736797 -0.0074428344)
(0.00265175538 0.02857790493 -0.006889247101)
(0.0359582632 0.02543669094 -0.007248733148)
(0.0544925291 0.01944743265 -0.004466276494)
(0.05877960179 0.01335356038 -0.004785815014)
(0.05017294891 0.007676501391 -0.001403750352)
(0.0387239218 0.003837564173 -0.002469309668)
(0.02947450358 0.0006594879861 0.0005552410993)
(0.0315825161 -0.0007521682345 0.003055458518)
(0.03910699676 -0.002810773778 0.006302846089)
(0.04328275353 -0.003029578237 0.009859969079)
(0.04690899085 -0.003472076116 0.009466611093)
(0.03563724971 -0.002269952577 0.009362978979)
(0.01542960362 -0.00218308729 0.006185981)
(-0.021551011 -0.0002117346947 0.004813408548)
(-0.0557754488 0.003222274118 0.00086236844)
(-0.08616677923 0.01023565643 -0.0005184289641)
(-0.09700274808 0.01905156055 -0.003582054106)
(-0.09210882711 0.02983881583 -0.005069506083)
(-0.0682821753 0.03868007878 -0.006820877226)
(-0.03407156317 0.04439995528 -0.008047073499)
(0.001126074937 0.04389794289 -0.007542243355)
(0.03174302268 0.03907461207 -0.007964806329)
(0.04892219709 0.02966911412 -0.005240087716)
(0.05336711713 0.02041456551 -0.005560585638)
(0.04578688437 0.01167012671 -0.002095026897)
(0.03550444304 0.005926591553 -0.002972209882)
(0.0273302484 0.00100383817 0.0003687260224)
(0.0304409926 -0.0002733802568 0.002853692973)
(0.03832951958 -0.002028811724 0.00578433086)
(0.04310690562 -0.001594654317 0.009065568609)
(0.04719114505 -0.002179347035 0.008495200104)
(0.03606422113 -0.0009977050792 0.008401489237)
(0.01608957428 -0.0016237385 0.00525197291)
(-0.01950913323 0.0002528446633 0.0041635485)
(-0.05152398646 0.00417913479 0.0002755726399)
(-0.07971556535 0.01282599601 -0.0009637822689)
(-0.08900088524 0.02388217549 -0.004057916849)
(-0.08414924978 0.03733278545 -0.005623972429)
(-0.06242858755 0.04823347571 -0.007509177351)
(-0.0320134198 0.05511960979 -0.008885510344)
(-0.001098178544 0.05424824786 -0.008438836541)
(0.02591537791 0.04807770168 -0.008945922465)
(0.04131343024 0.03632816822 -0.006268899884)
(0.04605599066 0.02491836299 -0.006581290666)
(0.03990584704 0.01419055151 -0.002977901245)
(0.03121219662 0.007247677437 -0.003624849905)
(0.02442850016 0.001259308574 0.0001293717718)
(0.03007385203 0.0007959688153 0.002582090101)
(0.03811480635 0.0001909503244 0.005146023628)
(0.04319469998 0.001838363957 0.008032096294)
(0.04732347042 0.001122921157 0.007303825317)
(0.03601953574 0.002057002788 0.007157750951)
(0.01628820354 2.30540623e-05 0.004200544649)
(-0.01748784679 0.001661154446 0.003298196179)
(-0.04692302247 0.004941537932 -0.0004073682834)
(-0.0722698561 0.01442792815 -0.001523697169)
(-0.07971065197 0.0263380978 -0.004648518106)
(-0.07494422211 0.04121579292 -0.00628908785)
(-0.05575286542 0.05281149689 -0.008338299725)
(-0.02982235479 0.06010465661 -0.0098235402)
(-0.003840461146 0.0586246414 -0.009460155855)
(0.01908619646 0.05169203482 -0.009992017096)
(0.03256112321 0.03869576826 -0.007381650003)
(0.03771587172 0.0264604015 -0.007649552317)
(0.03326562479 0.01482532434 -0.003923840617)
(0.02639491108 0.007683364096 -0.00429022833)
(0.02114694636 0.001251432537 -0.000137653553)
(0.03123246516 0.002241215813 0.00227279911)
(0.03900910047 0.003537920978 0.004345021804)
(0.04377624452 0.006621588409 0.006805404972)
(0.04733949752 0.005964504521 0.005884618462)
(0.03527618626 0.006320399268 0.005759260473)
(0.01579268482 0.002780777145 0.003040317354)
(-0.01606665609 0.003315265653 0.002356582109)
(-0.04252566495 0.005552102633 -0.00109997572)
(-0.06461500203 0.01466424051 -0.002119032365)
(-0.07010019902 0.02617956755 -0.005263918726)
(-0.06548225601 0.04092282404 -0.007028604264)
(-0.04911543554 0.05205372933 -0.009180395799)
(-0.02790912066 0.05891901265 -0.01077492842)
(-0.007035901254 0.0568959295 -0.01042362789)
(0.01183146856 0.04977411699 -0.01095616717)
(0.0234861678 0.03675259333 -0.008330775677)
(0.02917780492 0.02491079705 -0.008567532896)
(0.02660035478 0.0135585303 -0.004717102349)
(0.0216451945 0.007074405862 -0.004861389682)
(0.01793875414 0.0009924326413 -0.0003613424087)
(0.03422614296 0.003892889837 0.001905994147)
(0.04115307202 0.007248345412 0.003464324799)
(0.04491005551 0.01197119789 0.005448149279)
(0.04709726856 0.01123414863 0.00439005925)
(0.03375565859 0.01103319214 0.004277445156)
(0.01416081665 0.006030043852 0.001798889331)
(-0.01554394832 0.00539587782 0.001379774356)
(-0.03891413916 0.006118169324 -0.001834184785)
(-0.05770211234 0.01395135742 -0.002737228903)
(-0.06118134654 0.02374096985 -0.005903972917)
(-0.05670064353 0.03710486844 -0.007721444228)
(-0.043060441 0.04651791397 -0.009946021205)
(-0.02641052978 0.05240178032 -0.01151199294)
(-0.01030116019 0.04982561724 -0.01114947146)
(0.004845737962 0.04315630888 -0.01155943711)
(0.0149947512 0.0310885289 -0.008908193354)
(0.02131257271 0.02073887458 -0.009091744618)
(0.02062462852 0.01056677378 -0.005199615614)
(0.0175405286 0.00552844023 -0.005192086613)
(0.01527833557 0.0004570137156 -0.0005130283305)
(0.03916202359 0.005237022611 0.001520350481)
(0.04465364553 0.01042342613 0.002503444538)
(0.04659434062 0.01642346877 0.00404226728)
(0.0466681538 0.01559189867 0.002854234064)
(0.03159141922 0.01469970387 0.002814246283)
(0.011803149 0.008708377668 0.0005592238701)
(-0.01600618354 0.007027047726 0.0003961476213)
(-0.03648290779 0.006134250806 -0.002561352874)
(-0.05216300187 0.01205633616 -0.003432414656)
(-0.05376076338 0.01941075775 -0.006539610234)
(-0.04942538094 0.03032096975 -0.008414757971)
(-0.0383187986 0.03728699108 -0.01050642709)
(-0.02558621054 0.04175851905 -0.01198464015)
(-0.01357041791 0.03879329178 -0.01145460334)
(-0.001417540944 0.03314279351 -0.01168761883)
(0.007649082616 0.02276965584 -0.008945223369)
(0.01465917658 0.01474343797 -0.009072317493)
(0.01581177735 0.006492109372 -0.005208227236)
(0.01453246721 0.003416257153 -0.005183670548)
(0.01355237662 -0.0002302937676 -0.0005401840097)
(0.04535793512 0.006212871197 0.001119015995)
(0.04897672744 0.01227031079 0.00160495316)
(0.04856861723 0.01935356536 0.002712619917)
(0.04587629841 0.01802025405 0.001463157654)
(0.02889067834 0.01687355154 0.0015078538)
(0.00874240555 0.01012399328 -0.0005423175616)
(-0.01735287467 0.007857857873 -0.0005153224971)
(-0.03535675611 0.005448651401 -0.003255697504)
(-0.04831168374 0.009527577086 -0.004001623089)
(-0.04829183779 0.01405730203 -0.007028754898)
(-0.04410373265 0.02203127858 -0.008803375757)
(-0.03498518843 0.02606957858 -0.01073988006)
(-0.0253639846 0.02902092212 -0.01194398519)
(-0.01639326192 0.02576427895 -0.01121014551)
(-0.006483916439 0.02157599848 -0.01116178886)
(0.001998763331 0.01335636399 -0.008359801238)
(0.009790963681 0.008129000959 -0.008401302263)
(0.01257784524 0.002145718014 -0.004695232838)
(0.01282877413 0.001179985208 -0.004802010931)
(0.01287910489 -0.0009508207233 -0.0004414200833)
(0.05231230451 0.0064293034 0.0007576590725)
(0.05383778635 0.01244729103 0.0007551313477)
(0.05067223057 0.01964312911 0.00151084861)
(0.04492131367 0.01760787068 0.0002138994336)
(0.02601724559 0.01615501114 0.0003203041457)
(0.005449912679 0.009277408743 -0.001531766655)
(-0.01929038128 0.006765686049 -0.001435755967)
(-0.03529768183 0.003540001899 -0.003921724358)
(-0.04605972064 0.006146382753 -0.004642010003)
(-0.04494156199 0.008209258048 -0.007412430945)
(-0.04096753847 0.01334665081 -0.009056285947)
(-0.03338773706 0.01490828098 -0.01059001264)
(-0.02581824836 0.01648483193 -0.0114721718)
(-0.01884013736 0.01319106322 -0.01037517597)
(-0.0101869422 0.01061873754 -0.0100100806)
(-0.001846400873 0.004712126642 -0.007106769053)
(0.006719636377 0.002273047094 -0.007101964313)
(0.01085979842 -0.001625622186 -0.00367492195)
(0.01239109166 -0.0006921796606 -0.004061678928)
(0.0132461425 -0.001572688473 -0.0002219726299)
(0.05881286788 0.006099103754 0.000429965171)
(0.05819959619 0.01061510101 8.322299933e-05)
(0.05224212066 0.01736859988 0.0005582605236)
(0.04342449959 0.01402289793 -0.0007061689168)
(0.02301806076 0.01265120451 -0.0005385149246)
(0.002135966338 0.005753541433 -0.002251057043)
(-0.02138397814 0.003824481197 -0.002077985149)
(-0.03578521913 0.0002699776571 -0.004397285661)
(-0.04498664037 0.002301810721 -0.004990672732)
(-0.04322349092 0.002346078636 -0.007540379568)
(-0.03939303187 0.005449337383 -0.008840591098)
(-0.03277914051 0.00505526527 -0.01006620426)
(-0.02658465049 0.005767666691 -0.01046270485)
(-0.02055227634 0.002613350571 -0.009038228856)
(-0.0124743169 0.001617019279 -0.008300238586)
(-0.003895936383 -0.002254909087 -0.005344134133)
(0.005298133061 -0.002314895511 -0.005315738627)
(0.01044242663 -0.004467063492 -0.002283983215)
(0.01292306545 -0.002050101939 -0.003060581097)
(0.01433689754 -0.001994992339 8.219829749e-05)
(0.06425738696 0.004996822693 0.000190006536)
(0.0616832946 0.00701764643 -0.0004796238377)
(0.05311803439 0.01222430814 -0.0001769296735)
(0.04160436522 0.007485632323 -0.001399989684)
(0.02019570105 0.006017801311 -0.001231176372)
(-0.0007506096976 -0.0004685956644 -0.002785607666)
(-0.02313897054 -0.001443135693 -0.002675174305)
(-0.03635837177 -0.004489836754 -0.004755545733)
(-0.04457943887 -0.002325462574 -0.005326210917)
(-0.04273080243 -0.003063031859 -0.007448620287)
(-0.039067518 -0.001088711119 -0.008464193646)
(-0.03317828466 -0.002583562624 -0.009207430459)
(-0.02754316267 -0.002107651094 -0.009166562242)
(-0.02179016653 -0.004745389061 -0.007325922223)
(-0.01362604153 -0.004289956796 -0.006254968772)
(-0.004627177319 -0.006569403986 -0.003245217151)
(0.005147101826 -0.00484858113 -0.003227741416)
(0.01101272728 -0.005908689362 -0.0006710150053)
(0.01420234183 -0.002549699745 -0.001881436033)
(0.0159632232 -0.002175508296 0.0004256488695)
(0.06744285894 0.003478859803 -7.822341759e-07)
(0.06320014336 0.001849469904 -0.0008159195566)
(0.0526171213 0.005025033495 -0.0006401060314)
(0.03906151191 -0.001529041914 -0.001728290162)
(0.01742528998 -0.002824974272 -0.001543734667)
(-0.003091725713 -0.008986656747 -0.002946282882)
(-0.0241971735 -0.008353172661 -0.002842101536)
(-0.03639406295 -0.01052447775 -0.004758369742)
(-0.04397529987 -0.007333348976 -0.005205008442)
(-0.04235240553 -0.007974447759 -0.007028300311)
(-0.03906446901 -0.005959127845 -0.007631210871)
(-0.03351432971 -0.007769591815 -0.008027273832)
(-0.02811215326 -0.006797207859 -0.007515958188)
(-0.02211372295 -0.008688576033 -0.005425056988)
(-0.01376599389 -0.006983380036 -0.004051439087)
(-0.004291314239 -0.008121758241 -0.001078861933)
(0.005756156632 -0.005340120124 -0.001104194911)
(0.01203965948 -0.005869764665 0.0009449154125)
(0.0156290679 -0.002218211834 -0.0006827069069)
(0.01753309582 -0.002051171839 0.0007675193838)
(0.06816194056 0.001362844669 -0.000104366095)
(0.0626923071 -0.004430339395 -0.001057394535)
(0.05077688406 -0.00417185131 -0.000929961796)
(0.03608553155 -0.01249347744 -0.001910211274)
(0.01495642627 -0.01391346064 -0.001737310308)
(-0.004613746355 -0.01942007917 -0.002983173394)
(-0.02419602191 -0.01714397572 -0.0029912449)
(-0.03562084894 -0.0177162773 -0.004639732763)
(-0.042777946 -0.01294552314 -0.005025951458)
(-0.04175753823 -0.01241192862 -0.006412577216)
(-0.03892915415 -0.009331707909 -0.00673478847)
(-0.03378437147 -0.01030316987 -0.006681423348)
(-0.02820227736 -0.008195016936 -0.005848715367)
(-0.02193652982 -0.009041286556 -0.00353757456)
(-0.01323577489 -0.006233068636 -0.001987541439)
(-0.003467785789 -0.006684184186 0.000906139269)
(0.006728336675 -0.003501669874 0.0008345660621)
(0.01319824165 -0.00421571986 0.002362592438)
(0.01696840434 -0.0009116392039 0.0003969308724)
(0.01883263198 -0.00164782235 0.001039545529)
(0.06541454712 -0.0009497171672 -0.0001877573781)
(0.05923147078 -0.01152449652 -0.001077263674)
(0.04697200589 -0.01433393169 -0.001013084514)
(0.03221052816 -0.02469454631 -0.001786394284)
(0.01256101443 -0.0261069191 -0.001633466195)
(-0.005338777571 -0.03107835846 -0.002709874049)
(-0.02296768381 -0.02689726726 -0.002760147433)
(-0.0334135167 -0.02579558763 -0.004183375354)
(-0.04022926626 -0.01878146524 -0.004438505231)
(-0.03979625975 -0.01655748467 -0.005493220837)
(-0.03757821257 -0.01137431222 -0.005500660228)
(-0.03272779691 -0.01066734765 -0.005193410721)
(-0.02723914651 -0.006792644811 -0.004106866461)
(-0.0207447375 -0.006423579534 -0.001811014814)
(-0.01211828538 -0.002624024604 -0.0001682555916)
(-0.002365784265 -0.002733127192 0.002484008844)
(0.007490208403 0.0002909896009 0.002388114149)
(0.0138545989 -0.001208196825 0.003414880341)
(0.01750952352 0.00112123539 0.001239356333)
(0.01918523178 -0.001012926363 0.001220701893)
(0.05949375613 -0.003497713786 -0.0001859464404)
(0.05319770239 -0.01862606029 -0.001047938315)
(0.04153288947 -0.02476424203 -0.0009568653066)
(0.02779850756 -0.03687834111 -0.001615318246)
(0.01047214553 -0.03858786326 -0.001463955244)
(-0.005144864328 -0.04290232085 -0.002426561559)
(-0.0204449373 -0.03719262867 -0.002550702613)
(-0.02987567478 -0.03429075088 -0.003712959595)
(-0.03625161487 -0.0250719805 -0.003878986587)
(-0.03652976448 -0.02043680203 -0.004555497595)
(-0.03476983609 -0.01258116029 -0.004383042393)
(-0.03056853678 -0.009374780299 -0.003825404559)
(-0.02522786507 -0.003247790533 -0.0026733094)
(-0.01901028705 -0.001355712804 -0.0004746565662)
(-0.01064766901 0.003488334596 0.001109960277)
(-0.001418257639 0.003415044753 0.003452872271)
(0.007793494658 0.005927528521 0.003340057357)
(0.01376984175 0.003066671075 0.003958694221)
(0.01717160889 0.003898134326 0.001758317708)
(0.01858449026 -0.0001758446598 0.001269242907)
(0.04994069331 -0.005731953448 -0.0001958143087)
(0.04418380353 -0.02494609568 -0.0008332765428)
(0.03414646439 -0.03374919194 -0.0007825490901)
(0.022477184 -0.0475315016 -0.00121118013)
(0.008330657353 -0.04942747454 -0.001123596134)
(-0.004336770901 -0.05359476764 -0.001872431502)
(-0.01687714789 -0.04674178207 -0.002056295668)
(-0.02484321938 -0.04253519558 -0.00294198459)
(-0.03043896835 -0.03110496897 -0.003017858477)
(-0.03098620473 -0.02399836562 -0.003415141575)
(-0.02977609896 -0.01318986461 -0.003123291835)
(-0.0261563129 -0.007403710595 -0.002512771307)
(-0.02159328077 0.001054763452 -0.001450470152)
(-0.0160062101 0.004501868454 0.0004287064078)
(-0.008767708914 0.01040283678 0.001834825348)
(-0.0006568269264 0.0102568852 0.003742279805)
(0.007230735193 0.01208376415 0.003624719139)
(0.01240235636 0.007718635448 0.003930278142)
(0.01528372354 0.006838700606 0.001908570657)
(0.01636838159 0.0007265996108 0.001187207724)
(0.03798470483 -0.007655875168 -0.0001264101896)
(0.03339317759 -0.03003451908 -0.0006606264046)
(0.02564990553 -0.04115770319 -0.0005564265656)
(0.01676094701 -0.05625471673 -0.0009292608737)
(0.006209910997 -0.05863535471 -0.0008406143792)
(-0.003242895737 -0.06274747128 -0.001477024974)
(-0.01263399142 -0.05529328934 -0.001614160615)
(-0.01882554504 -0.04983158848 -0.002256874132)
(-0.02315421488 -0.03650354668 -0.002238123922)
(-0.02389162346 -0.02702558552 -0.002446580779)
(-0.0230688391 -0.01350461367 -0.002125864339)
(-0.02052160565 -0.005145615579 -0.001563485609)
(-0.01683217718 0.005630341324 -0.0006913660356)
(-0.01242643381 0.01069826273 0.0007792017257)
(-0.006597837286 0.01758995677 0.001864459095)
(-0.0002458213855 0.01740976326 0.003292632643)
(0.005987114847 0.01845486612 0.003178506618)
(0.01004167221 0.01252335781 0.003303503527)
(0.0122927566 0.009829805472 0.001677685009)
(0.01304701822 0.001654601864 0.0009619806785)
(0.02346131585 -0.008903678995 -0.0001098577244)
(0.02048655131 -0.03344689792 -0.0003672799894)
(0.01565421369 -0.04599018929 -0.0003664555032)
(0.01013403747 -0.06200128624 -0.0005192096276)
(0.003738283148 -0.06461019093 -0.0005346845849)
(-0.001976205102 -0.06881510065 -0.0008669811831)
(-0.007740012787 -0.0609225777 -0.001008249744)
(-0.01153393483 -0.05473176186 -0.001330777724)
(-0.01429069623 -0.04010949836 -0.001320626506)
(-0.01473428714 -0.02910495747 -0.001366702492)
(-0.01434681713 -0.01376698846 -0.001155086154)
(-0.0126734862 -0.003638065414 -0.0007838615632)
(-0.01044134836 0.008811985492 -0.0002347717949)
(-0.007595303609 0.01498764984 0.0006545529006)
(-0.004045089309 0.02260778186 0.001333892009)
(-4.72565243e-05 0.02239655492 0.002195966365)
(0.003791340536 0.02295593114 0.002127921053)
(0.006321892184 0.01587345623 0.002159031079)
(0.007684776802 0.01194214277 0.001120829221)
(0.008093769842 0.002295324443 0.0006160881487)
(0.008231311387 -0.009581207969 -8.053833498e-06)
(0.007283112029 -0.03536385901 -0.0001518094971)
(0.005616522133 -0.04882547977 -8.514214787e-05)
(0.003705986463 -0.06539140647 -0.0001963800082)
(0.001445440422 -0.06832285571 -0.0001477283946)
(-0.0006380886296 -0.07267354323 -0.0003317665917)
(-0.002738691776 -0.06463060733 -0.0003362334815)
(-0.004203109225 -0.05792375475 -0.0004926166042)
(-0.005126300805 -0.04250129797 -0.0004560427199)
(-0.005335533034 -0.0305618471 -0.0004985120834)
(-0.005089917271 -0.01412066301 -0.0004006498885)
(-0.00454107823 -0.002945623446 -0.0002824872953)
(-0.003626132852 0.01042513615 -8.676668041e-05)
(-0.00264056544 0.01718175434 0.0002253505052)
(-0.001345271416 0.02508318803 0.0004564573408)
(-2.031288236e-05 0.02489526365 0.0007641075598)
(0.001317508958 0.02513224117 0.0007419852826)
(0.002167590416 0.01749664205 0.0007537008902)
(0.002663244315 0.01288268111 0.0003947628117)
(0.002827860607 0.002607287196 0.0002125508671)
(0.04734417205 -0.0004252462266 0.00292520231)
(0.05046954483 -0.001229746395 0.01750214652)
(0.04870065675 -0.001596541734 0.01688690964)
(0.04616462822 -0.001805421725 0.02261387221)
(0.03038710306 -0.001502558976 0.01314669371)
(0.007771207258 -0.001337695522 0.01108400831)
(-0.03182466819 -0.0006263569777 -0.000192106045)
(-0.06812824205 0.0002576754779 -0.004147141184)
(-0.09950271881 0.001961975817 -0.01205500864)
(-0.1118947469 0.003882071444 -0.01463253598)
(-0.1051375907 0.006257382803 -0.01896781665)
(-0.07855107741 0.00815403029 -0.0205698288)
(-0.03721258868 0.009383677058 -0.02164548209)
(0.003828178527 0.009253096864 -0.02129746978)
(0.04155966956 0.008117964503 -0.01872729649)
(0.06084512301 0.005972396104 -0.01631424548)
(0.06572944762 0.00385251366 -0.01205270452)
(0.05528614585 0.001939259766 -0.009802845691)
(0.04276538081 0.0008193475868 -0.005121781506)
(0.0325040201 2.710002031e-05 -0.003126469281)
(0.04621120525 -0.00113529097 0.002748877647)
(0.04963820284 -0.003331846048 0.01712997793)
(0.04830020479 -0.004323604966 0.01620916448)
(0.04622763524 -0.004909102956 0.02182984068)
(0.03070663949 -0.004145677227 0.01218505755)
(0.008370984071 -0.00370891699 0.01025247549)
(-0.030713999 -0.001923335835 -0.001039468554)
(-0.06631088199 0.0006995628823 -0.004808047043)
(-0.09694552942 0.005477904488 -0.01265741422)
(-0.10886716 0.01118150935 -0.01524053901)
(-0.1021388509 0.01794245683 -0.01965879915)
(-0.07635555398 0.02351229216 -0.0213919533)
(-0.03643694104 0.0269401077 -0.02254661525)
(0.002943945167 0.02663500658 -0.0222746002)
(0.03925484741 0.02329416765 -0.01970685801)
(0.05783549127 0.01715628638 -0.01733058763)
(0.06287862793 0.01102809081 -0.01297199017)
(0.05313961544 0.005618908317 -0.01060457517)
(0.04142055792 0.002345965242 -0.005644108768)
(0.03187734054 0.0001215171275 -0.003332307336)
(0.0442673616 -0.001424258453 0.002465496479)
(0.04820113254 -0.004476401569 0.01635393106)
(0.0475997855 -0.005644028679 0.01497970132)
(0.0462753556 -0.006624156538 0.02028419575)
(0.0312202475 -0.005473763719 0.01046953154)
(0.009317048573 -0.005178269502 0.008698238961)
(-0.02873278708 -0.002552888413 -0.002469221706)
(-0.06293241903 0.001219034118 -0.005944140439)
(-0.09210947066 0.008682749541 -0.01371810419)
(-0.1031001322 0.01743028527 -0.01629601554)
(-0.09646507396 0.02797836005 -0.02098267448)
(-0.07221327475 0.03639076959 -0.02289608644)
(-0.03500486714 0.04164360154 -0.02429296757)
(0.001265325823 0.04092857551 -0.02409780884)
(0.03487889649 0.03581257188 -0.02159155065)
(0.05218628841 0.02620638523 -0.01918634913)
(0.05757493411 0.01695705608 -0.01469757757)
(0.04912944674 0.008636364876 -0.01204743806)
(0.03888349865 0.003725219437 -0.006637503918)
(0.03067256375 0.0001911044446 -0.003688864925)
(0.04214504626 -0.001175261621 0.001981983185)
(0.04662691663 -0.004238584652 0.01530802698)
(0.04680300879 -0.005103202412 0.01311336501)
(0.04633039171 -0.00633439918 0.01816259807)
(0.03171057556 -0.005208568853 0.007937981535)
(0.01039791705 -0.005390482666 0.006546623496)
(-0.026225746 -0.002617081648 -0.004428861893)
(-0.05841738318 0.001774320429 -0.007487100452)
(-0.08551258983 0.01091331866 -0.0151387547)
(-0.09525566245 0.0218451393 -0.01780712636)
(-0.08878877874 0.03499693308 -0.02270536863)
(-0.06673393879 0.0453481439 -0.02499287751)
(-0.03322869731 0.05173838113 -0.02659648336)
(-0.00115550508 0.0505941371 -0.02655531774)
(0.02887489313 0.04419381566 -0.0240210495)
(0.04452199872 0.03222177624 -0.02162304298)
(0.05045538903 0.02090139009 -0.01686199337)
(0.04375682719 0.01066809206 -0.01390875999)
(0.03546106301 0.004739381264 -0.007860231827)
(0.02898581563 0.0002927446931 -0.004179459831)
(0.04054573689 -0.0003088944064 0.001461836627)
(0.0453894402 -0.002556529162 0.01386848611)
(0.04613669781 -0.002484472747 0.01089668001)
(0.04618097002 -0.00387522524 0.01546703379)
(0.03186828396 -0.002978549308 0.00506360756)
(0.01110855396 -0.004171062749 0.00406416691)
(-0.02370508873 -0.001755858713 -0.006541766148)
(-0.05341672802 0.002340055502 -0.009104669362)
(-0.07795187527 0.0122368694 -0.01671957878)
(-0.08611632693 0.02404621232 -0.01943447038)
(-0.07990057378 0.03854450009 -0.02481171791)
(-0.06042265295 0.04964827949 -0.0273689877)
(-0.03130187106 0.05651383245 -0.0293185725)
(-0.004045781246 0.05485343993 -0.0292832339)
(0.02191917408 0.04784384868 -0.0267345409)
(0.03573567479 0.03473634859 -0.02417364551)
(0.04233341024 0.02264332759 -0.01917465639)
(0.03766979648 0.0114774568 -0.01579012173)
(0.03156378662 0.005330430531 -0.009178178863)
(0.02697441301 0.0003151078636 -0.004652383543)
(0.04020848601 0.0009570495743 0.0007426900695)
(0.04505208729 0.0003320916206 0.01221003416)
(0.04588334773 0.001692639763 0.008192299753)
(0.04596172996 0.0004030962326 0.01244656827)
(0.03148311173 0.0008301053126 0.001785929002)
(0.0112257988 -0.001784607214 0.001461306159)
(-0.02165466028 -0.0003080984302 -0.008810002252)
(-0.04856647156 0.002845933332 -0.01072973446)
(-0.07019803908 0.01236486295 -0.01821586309)
(-0.07670077782 0.02379417837 -0.02114236621)
(-0.07073891352 0.03821338987 -0.02673625582)
(-0.05407090533 0.04901326272 -0.02977690752)
(-0.02956025757 0.05571288975 -0.03180951301)
(-0.007267162824 0.05368314847 -0.03181263354)
(0.01467849638 0.04676975426 -0.02903016681)
(0.02671851999 0.03380626643 -0.02633044462)
(0.03400605915 0.02213217536 -0.02101162291)
(0.03148228929 0.01110033076 -0.01734840615)
(0.02758601406 0.005359490109 -0.0102226137)
(0.02484955731 0.0002769591098 -0.005060393246)
(0.0415264963 0.002465625312 2.095120525e-05)
(0.04586767658 0.00374217338 0.01017238747)
(0.04619116978 0.006709561127 0.005314538537)
(0.04555218796 0.005466192959 0.009043697122)
(0.0303061087 0.00543025725 -0.001549928726)
(0.010279119 0.001306683321 -0.001223154477)
(-0.02045213184 0.001678952428 -0.01094308389)
(-0.04448373097 0.00334222858 -0.01226289272)
(-0.06316873721 0.01146294687 -0.01968168563)
(-0.06788087432 0.02131616766 -0.022638123)
(-0.06212141069 0.03448818317 -0.02865539626)
(-0.04807956622 0.04400566371 -0.03176623631)
(-0.02801819266 0.05010224734 -0.03387398012)
(-0.0103579092 0.04785339126 -0.03361708185)
(0.007888432288 0.04174406958 -0.03053018744)
(0.01832577007 0.02987460137 -0.02748819457)
(0.02627319119 0.01974841066 -0.02198527005)
(0.02577930303 0.009607922534 -0.01808373722)
(0.02392984526 0.004918493603 -0.01077315379)
(0.02284745406 0.000117414407 -0.005221772567)
(0.04465548685 0.003745656088 -0.0008155972904)
(0.04799866467 0.006887306102 0.008086076171)
(0.04710312096 0.01121809615 0.002346216007)
(0.04504312799 0.0100250614 0.005759506468)
(0.02853281664 0.009416246409 -0.004630906816)
(0.008563789956 0.004226210878 -0.003647901157)
(-0.02022793903 0.003401140568 -0.01277460825)
(-0.04166150577 0.003420624708 -0.01361322329)
(-0.0575099701 0.009657983084 -0.02069785081)
(-0.06045444149 0.01727289402 -0.02384034845)
(-0.0547445596 0.02827783639 -0.02974987852)
(-0.04305164823 0.03577812191 -0.03305742866)
(-0.02685755557 0.04093021228 -0.03481713616)
(-0.01317015723 0.0386564208 -0.03427504268)
(0.00198242157 0.03387427948 -0.03064893213)
(0.01117200409 0.02377339464 -0.02728875194)
(0.0196651764 0.01603129959 -0.02162572323)
(0.02096451143 0.007430504859 -0.01770650531)
(0.02089879592 0.004161344053 -0.01053975084)
(0.02115175828 -9.171251315e-05 -0.005103992035)
(0.04910578774 0.004767605474 -0.001583941334)
(0.05107833683 0.008948927383 0.005877381488)
(0.0484124357 0.01453728935 -0.0005089466077)
(0.04426888154 0.01299646978 0.002531266837)
(0.02620502682 0.01210406883 -0.007407796773)
(0.006028026755 0.006103109884 -0.005933476228)
(-0.02102180424 0.004340226323 -0.01442680025)
(-0.04006197222 0.002844636254 -0.01475457099)
(-0.05338138866 0.007232749572 -0.02157476974)
(-0.05474112364 0.0123962334 -0.02447812262)
(-0.0490823989 0.02081933273 -0.03034563738)
(-0.03915467557 0.02590470838 -0.03323879993)
(-0.02599567008 0.02998319146 -0.03457379338)
(-0.01534592965 0.0277882978 -0.03337246712)
(-0.002626384399 0.02474005408 -0.02915225956)
(0.005715347314 0.01682184441 -0.02535910538)
(0.01470743885 0.01186019557 -0.01967179381)
(0.01735300832 0.005045819936 -0.0159704644)
(0.01864020015 0.003316249437 -0.009440731977)
(0.01983556105 -0.0003417018035 -0.004634480703)
(0.05443120091 0.005123895895 -0.002286082564)
(0.05481375953 0.009557785537 0.003859770937)
(0.04997407768 0.0155427218 -0.002966505665)
(0.04331860565 0.01347907922 -0.0001890704938)
(0.02366432173 0.01224603365 -0.00944708909)
(0.00308683796 0.005990566289 -0.007727429421)
(-0.02251896912 0.003767878059 -0.01539831388)
(-0.03961639856 0.001353940279 -0.01555183575)
(-0.0507493017 0.004271044299 -0.02175346991)
(-0.0508679452 0.00723943946 -0.02460948201)
(-0.04523173415 0.01327964925 -0.0298312201)
(-0.03659872271 0.0161831853 -0.03231407764)
(-0.02553057196 0.0192926912 -0.03281768812)
(-0.01687905009 0.01729612785 -0.03089492388)
(-0.005767193542 0.01604091996 -0.02600127601)
(0.002070042188 0.01042624029 -0.02183069144)
(0.0113305456 0.008134249907 -0.01629735924)
(0.01489073902 0.002949849045 -0.01304295229)
(0.01712388938 0.002624922629 -0.007563040994)
(0.01891436152 -0.0005735497334 -0.003843190111)
(0.05958384144 0.005024717559 -0.00283214568)
(0.0583392541 0.008270383041 0.001958983403)
(0.05120109464 0.01415607676 -0.005035888348)
(0.04194266848 0.01095127836 -0.002520962095)
(0.02092499627 0.0096964578 -0.01103632665)
(5.696984837e-05 0.003349565757 -0.00912823346)
(-0.02428045671 0.001454428817 -0.01614118392)
(-0.03970404514 -0.001322036237 -0.0159922183)
(-0.04920986703 0.001010125424 -0.02173838785)
(-0.04838936231 0.002284704659 -0.02401146855)
(-0.04278344428 0.006581666661 -0.0286367034)
(-0.0349354649 0.007685861096 -0.03021420606)
(-0.02520862645 0.010151611 -0.02984408768)
(-0.01764594616 0.00839821934 -0.02696236428)
(-0.00748120185 0.008753592651 -0.02140676791)
(0.0001284095868 0.005084247693 -0.01690950144)
(0.009412650256 0.005051695645 -0.01166222329)
(0.01342717817 0.001243856967 -0.009129454037)
(0.01618745785 0.002104124393 -0.004995919442)
(0.01825055142 -0.000760259173 -0.002822309838)
(0.06394210758 0.004181857105 -0.003147204667)
(0.06116187649 0.005310353197 0.0004292608069)