/*--------------------------------*- C++ -*----------------------------------*\
| =========                 |                                                 |
| \\      /  F ield         | OpenFOAM: The Open Source CFD Toolbox           |
|  \\    /   O peration     | Version:  5.x                                   |
|   \\  /    A nd           | Web:      www.OpenFOAM.org                      |
|    \\/     M anipulation  |                                                 |
\*---------------------------------------------------------------------------*/
FoamFile
{
    version     2.0;
    format      ascii;
    class       volVectorField;
    location    "5.2";
    object      U;
}
// * * * * * * * * * * * * * * * * * * * * * * * * * * * * * * * * * * * * * //

dimensions      [0 1 -1 0 0 0 0];

internalField   nonuniform List<vector> 
30538
(
(0.1206774234 -0.001599959681 -0.003552546031)
(0.1321909863 -0.00246143422 0.006373608148)
(0.1010778965 -0.005658991745 -0.002674268525)
(0.06052963748 -0.005169084919 0.003172817958)
(0.0286785379 -0.0006308755124 -0.001339249638)
(0.01948715953 -0.001109017534 8.285785455e-05)
(-0.03952543639 0.0006078616039 -0.005675697819)
(-0.05867738527 0.0002183014081 -7.713305616e-05)
(-0.06802506496 -0.001614394579 -0.008289158871)
(-0.07150836347 -0.003896912864 -0.01384666679)
(-0.08890308099 0.001390370248 -0.0172132945)
(-0.08339207295 0.003995307722 -0.01207536897)
(-0.08142206979 0.008038863236 -0.01372002917)
(-0.04842341251 0.005377670541 -0.01395518097)
(-0.03447519408 0.006665691084 -0.01807141156)
(0.0001494767984 0.005659734489 -0.01553427962)
(0.008865709505 0.005850685917 -0.01603188849)
(0.02653835978 0.00171182342 -0.007509599677)
(0.03387469606 -8.943447644e-06 -0.004729468814)
(0.04327213111 -0.001391209621 0.002236986017)
(0.1178797713 -0.004684184546 -0.00165038119)
(0.1293195623 -0.006443521307 0.008188626231)
(0.09911749825 -0.01756457271 -0.002480711392)
(0.06408575704 -0.01441214364 0.001837110249)
(0.03150842812 -0.00624089423 -0.002974245888)
(0.02034491811 -0.006268247068 -0.001497306587)
(-0.03861190719 -0.004670390947 -0.007022026882)
(-0.06021814921 -0.0003321327567 -0.0008779188436)
(-0.07094735063 -0.005623670756 -0.007653037946)
(-0.06935384703 -0.007456793872 -0.01249687538)
(-0.08336973108 0.002526154005 -0.01799093902)
(-0.07870362162 0.01304034616 -0.0132775459)
(-0.08047303409 0.02087636617 -0.01445172266)
(-0.04939549064 0.017820935 -0.01277278369)
(-0.03422903259 0.01831759867 -0.01739983895)
(-0.0004815674567 0.01799963802 -0.01571398041)
(0.006170314488 0.01531194425 -0.01670545128)
(0.02238622098 0.006101688961 -0.007369502009)
(0.03168589255 -0.0007082881178 -0.004217969524)
(0.04418578676 -0.003000876542 0.002660791909)
(0.1130413048 -0.003509687136 0.001183228387)
(0.1230388985 -0.01080291425 0.0109304738)
(0.09544098867 -0.02428348312 -0.001585086827)
(0.06848912094 -0.02252503654 0.0006665420066)
(0.03437514972 -0.01197260457 -0.004239614794)
(0.02057698414 -0.01709833582 -0.002511697416)
(-0.03536790364 -0.0139856422 -0.007928038319)
(-0.05932487734 -0.007044902522 -0.002388253601)
(-0.07307681717 -0.004141850205 -0.006185414665)
(-0.06568263342 -0.007171882809 -0.01063455359)
(-0.07450628368 0.007700159885 -0.01837833199)
(-0.0704337791 0.01743934113 -0.01539701692)
(-0.07809668752 0.03280366549 -0.01504261871)
(-0.05022888835 0.02766014107 -0.01158839869)
(-0.03430132443 0.03133713764 -0.01627502189)
(-0.002036143169 0.02770518236 -0.01635969087)
(0.0005645805738 0.02405170552 -0.01710554768)
(0.01516716076 0.009720740384 -0.006578583095)
(0.02750095345 0.001354049261 -0.002443006833)
(0.04558070154 -0.00430171464 0.00353308512)
(0.1080508047 -0.001160059747 0.003203571676)
(0.1144888348 -0.01300893559 0.01248971515)
(0.09098117003 -0.02773264885 -0.0003009085377)
(0.07270973163 -0.02642951219 0.0001089872521)
(0.03536025656 -0.01996528649 -0.005347354887)
(0.01888668719 -0.02674300012 -0.001754220511)
(-0.03157452767 -0.02722495364 -0.008355323709)
(-0.05325215277 -0.01589786619 -0.003813060406)
(-0.07109549545 -0.003888554303 -0.006790071951)
(-0.060902901 -0.001142383911 -0.009124726775)
(-0.06606420637 0.01091338375 -0.02013157568)
(-0.06100740869 0.01879079152 -0.01716308685)
(-0.07329145656 0.03616108329 -0.01722339843)
(-0.05042631919 0.03588157479 -0.01095028577)
(-0.03421656816 0.04026057519 -0.01662920555)
(-0.005620052102 0.03427860344 -0.01716221497)
(-0.006566357966 0.02695547882 -0.01765707549)
(0.006333138303 0.01322106884 -0.005027436918)
(0.02190279496 0.004677699196 -0.0004208140771)
(0.0458247123 -0.002652463522 0.004957171617)
(0.103288359 0.003153570375 0.002599571996)
(0.1041233075 -0.01522123122 0.01088737909)
(0.08612950515 -0.02442987246 0.001250802122)
(0.07388543776 -0.02897213546 0.0004033038331)
(0.03420811469 -0.0249408017 -0.004896549952)
(0.01541184012 -0.0336333892 0.0002347776092)
(-0.02776070206 -0.03462580275 -0.005886730195)
(-0.04282924729 -0.02521860205 -0.004928912313)
(-0.0627249667 -0.001582726663 -0.007195875997)
(-0.05515916956 0.00438647448 -0.009018699656)
(-0.06051066166 0.01479078706 -0.01886302329)
(-0.05262523092 0.01419107305 -0.01729002629)
(-0.06607501556 0.0356985441 -0.0172518146)
(-0.04733523722 0.0394256646 -0.01137856306)
(-0.03548401453 0.04770043714 -0.01619692021)
(-0.01139466337 0.0346031521 -0.0169916799)
(-0.01438368217 0.02657970569 -0.01606252049)
(-0.0006056951769 0.01437801368 -0.003294301685)
(0.0164596927 0.01150767994 0.001585265978)
(0.04365236213 0.0007492040715 0.005562024552)
(0.09969724767 0.004882528873 -0.001169961539)
(0.09494701646 -0.01480293851 0.00604052745)
(0.08139502406 -0.01998620192 0.001858772695)
(0.07226549647 -0.03048536476 0.001374241219)
(0.0320923332 -0.03011209957 -0.004852850024)
(0.0120149379 -0.03580620385 0.002372928226)
(-0.02566712349 -0.03668837326 -0.003678950487)
(-0.02988555443 -0.02911950263 -0.005084466239)
(-0.05025986387 -0.001528104228 -0.01150857301)
(-0.04926210997 0.008560711601 -0.009853038274)
(-0.05919615641 0.01574509133 -0.01889705903)
(-0.04626874137 0.008308847624 -0.01495464254)
(-0.05550900716 0.03136584997 -0.01935559014)
(-0.04196688289 0.04085510385 -0.01297157574)
(-0.03765411388 0.05040120905 -0.01751545811)
(-0.02053203059 0.03240540994 -0.01480581064)
(-0.02087057926 0.02316383517 -0.01394115419)
(-0.004359907037 0.01502052711 -0.001896949787)
(0.01248614168 0.01854459134 0.0009307014543)
(0.03660259305 0.005830667632 0.00525063693)
(0.09639158177 0.005044554709 -0.005897492752)
(0.08651479663 -0.01570190292 -0.0004206901378)
(0.075192261 -0.01561505785 0.00240906011)
(0.06664899557 -0.03438116506 0.00300988724)
(0.03045259849 -0.03279699866 -0.003520069921)
(0.01075863794 -0.03706707653 0.002978680379)
(-0.02304830784 -0.02907555963 0.0005770047254)
(-0.01796539685 -0.02757495817 -0.005233404648)
(-0.03615097033 -0.001517853842 -0.01316565669)
(-0.04289115873 0.006660257874 -0.01186999163)
(-0.06071469432 0.01528236815 -0.01408209743)
(-0.04161382939 0.002844634718 -0.01078009522)
(-0.04313388306 0.02868520768 -0.01820899234)
(-0.03393398496 0.03813190868 -0.01537167643)
(-0.04146874056 0.0509423681 -0.01648611814)
(-0.030663946 0.02823879952 -0.01087536135)
(-0.026624748 0.02117482886 -0.009152369469)
(-0.00389112642 0.01477946399 -0.001686287201)
(0.01015741097 0.02412488393 -0.00143997068)
(0.0258809324 0.009113359273 0.002994092753)
(0.09224639445 0.0003599474533 -0.009307505412)
(0.08027025396 -0.019586753 -0.004795834876)
(0.06841762131 -0.01780368848 0.002093944601)
(0.0600800548 -0.04132267097 0.004893154824)
(0.03022129291 -0.0372406324 -0.00355747961)
(0.01461820547 -0.040333769 0.001603373194)
(-0.01897144783 -0.02066481825 0.0004678472606)
(-0.01039284614 -0.02202419243 -0.004483054979)
(-0.02611567082 -0.005599466709 -0.01756180268)
(-0.03732673528 -0.003023772899 -0.01318033479)
(-0.06189005565 0.01234902227 -0.01355236379)
(-0.03685483036 0.003094004528 -0.006947966787)
(-0.03060709104 0.02693034994 -0.02098235891)
(-0.02630741191 0.03238389548 -0.01833089708)
(-0.04467478084 0.04594960673 -0.01781849146)
(-0.04157626205 0.0240926177 -0.006172392589)
(-0.03037915141 0.02084161725 -0.005702622036)
(-0.002267617335 0.01477328177 -0.002041169353)
(0.008668987977 0.02454014468 -0.006276667145)
(0.01261009076 0.009609480946 0.0002597585632)
(0.08287539822 -0.004572738349 -0.008342491399)
(0.07355748009 -0.02517254997 -0.005171423498)
(0.06007418855 -0.02127465622 0.001618306111)
(0.05287731148 -0.04681882782 0.006037175928)
(0.03119402757 -0.03811208164 -0.002110414641)
(0.02243457198 -0.04438200604 -0.001763493273)
(-0.01012891464 -0.01395787055 0.0004802919962)
(-0.007280766576 -0.01675747975 -0.004255983249)
(-0.02275575169 -0.009965342909 -0.01484638712)
(-0.03016438611 -0.01754894803 -0.0135224282)
(-0.05639242524 0.008934255488 -0.009259875955)
(-0.03139977277 0.007000572879 -0.004885292143)
(-0.02246173775 0.02649638234 -0.01887439975)
(-0.02053958989 0.02203985191 -0.02036641205)
(-0.04735396698 0.03500649296 -0.01612122958)
(-0.04837913445 0.01952285575 -0.002339242453)
(-0.03323531705 0.0229138931 -0.001252976959)
(-0.001280579055 0.01396717237 -0.002802572707)
(0.006676611889 0.01985402887 -0.009682359491)
(0.001295351132 0.005174323777 -0.002706527001)
(0.07129313854 -0.005025625867 -0.00456517253)
(0.06835434396 -0.02672832506 -0.001654223657)
(0.05334807739 -0.02143120817 -0.0005280565532)
(0.04813946198 -0.04604329361 0.005913218631)
(0.03198278199 -0.0355769015 -0.002234658246)
(0.03165739903 -0.04654626472 -0.004589120331)
(0.0005141700041 -0.01582781684 -0.004247438945)
(-0.007501529417 -0.01848168947 -0.003869068197)
(-0.02667856471 -0.0156512219 -0.01371340976)
(-0.02393065182 -0.03055057747 -0.01194709697)
(-0.0445700131 0.002418616575 -0.01299876645)
(-0.02454051806 0.009077825657 -0.00538094928)
(-0.02000787379 0.02453967392 -0.02015109314)
(-0.02030042109 0.007458002619 -0.02002271117)
(-0.04644070619 0.01908558321 -0.01691521546)
(-0.05010684796 0.01315650667 -0.0006968559439)
(-0.03429609798 0.02470906096 -0.0005395055104)
(-0.004487321767 0.01254134682 -0.002539825125)
(0.002565896954 0.01281586816 -0.01122752533)
(-0.005476658248 -0.001814722148 -0.003161690491)
(0.06053605898 0.001513501089 -0.0001778066014)
(0.06186893112 -0.02393050518 0.001507122023)
(0.0466335919 -0.01360952948 -0.001860441066)
(0.04284779669 -0.03977364891 0.004670049074)
(0.03086468596 -0.02697363995 0.0005004424735)
(0.03639536489 -0.04418757177 -0.005505938894)
(0.009656192646 -0.02067171339 -0.005961407135)
(-0.007056379031 -0.02627197495 -0.004482922506)
(-0.0313026219 -0.01655629375 -0.00634893528)
(-0.01736948961 -0.03607574253 -0.009404979921)
(-0.02842850415 -0.004350405783 -0.01193664362)
(-0.01583642534 0.006397201399 -0.007420213172)
(-0.02362326809 0.02001338998 -0.01546954667)
(-0.02439062301 -0.006796952105 -0.01643538776)
(-0.04329233486 0.002719339485 -0.01352190239)
(-0.0444260375 0.004783804459 -0.001733142837)
(-0.0336576224 0.02430160652 -0.0005495839818)
(-0.009762634023 0.01118289728 -0.002030341292)
(-0.003407139297 0.007176423711 -0.008317347832)
(-0.006829560393 -0.007212621968 -0.002229013479)
(0.05556183392 0.008257093469 0.001625732071)
(0.05760615691 -0.02096933555 0.003583210378)
(0.04238026491 -0.007242901735 -0.003385069454)
(0.03866147862 -0.03578178185 0.002880786571)
(0.02889637762 -0.02072773075 0.002034650425)
(0.03611774044 -0.04118188098 -0.003828137379)
(0.01312573425 -0.02657307345 -0.009169176154)
(-0.004478634009 -0.037361548 -0.005075485738)
(-0.03364799522 -0.01636840584 -0.004616231868)
(-0.01528993207 -0.0366556962 -0.005697962711)
(-0.01459819714 -0.01337973918 -0.01532639125)
(-0.007396232802 -0.005307989421 -0.009616819864)
(-0.02931340918 0.01124877676 -0.01440347188)
(-0.03252404038 -0.01799791249 -0.009869821644)
(-0.03822458012 -0.009561908723 -0.01178506498)
(-0.03487599336 -0.00533983315 -0.004349731306)
(-0.02979075255 0.02076399754 -0.004802866323)
(-0.01666005873 0.01015584171 -0.001183253771)
(-0.01041341462 0.006542390093 -0.004248807704)
(-0.005726615085 -0.008629713247 0.001107975386)
(0.05165153551 0.009380228797 0.002207140943)
(0.05087988645 -0.02359592554 0.003996336064)
(0.03642113054 -0.006426987166 -0.002184352822)
(0.03326060555 -0.03804317733 0.0002110360457)
(0.02708441731 -0.01937686892 0.004027387562)
(0.03229367548 -0.03989530261 -0.002223255638)
(0.01233044001 -0.02633356763 -0.008446559084)
(0.0002692026814 -0.0447678589 -0.006775930212)
(-0.03085177884 -0.01549476528 -0.0006330844757)
(-0.01525227779 -0.03389293681 -0.002578727055)
(-0.006315025892 -0.01893679868 -0.01119311414)
(0.00148966213 -0.02012023482 -0.01155765924)
(-0.03254513397 -0.0006548451938 -0.009921480593)
(-0.03911838557 -0.02316635844 -0.002962820362)
(-0.03433330804 -0.01405451874 -0.005827300429)
(-0.02296221177 -0.0124465498 -0.006842539935)
(-0.02276524285 0.01584987785 -0.008295533668)
(-0.01985089618 0.008737467122 -0.002285355128)
(-0.01667471167 0.00933892229 0.0005060580694)
(-0.00558742553 -0.006989717523 0.003626625367)
(0.04560075055 0.004840935125 0.002220858245)
(0.04641999271 -0.03341191522 0.004631040126)
(0.03240165079 -0.01100174136 -0.001980645024)
(0.02944669777 -0.04492077051 -0.001959452055)
(0.02762489569 -0.02515205006 0.001948977719)
(0.0312276336 -0.04492157682 -0.001921584648)
(0.009669451479 -0.02473210725 -0.009971745028)
(0.003298408136 -0.05143615944 -0.007725609142)
(-0.02601515789 -0.02183728341 -0.002528414988)
(-0.01770640184 -0.03496781645 4.226140904e-05)
(-0.004889014357 -0.02145548975 -0.01040920709)
(0.005466452197 -0.03512920897 -0.0125483488)
(-0.03143025923 -0.01647916148 -0.01044780085)
(-0.04201173897 -0.02748621806 0.002049545717)
(-0.03067325722 -0.01188001767 -0.002796210807)
(-0.01369272921 -0.01357153192 -0.008359335655)
(-0.01485873181 0.01015949072 -0.01388372284)
(-0.0212592398 0.003251258667 -0.004135629476)
(-0.02149115026 0.009074034378 0.002031412676)
(-0.007631864511 -0.0058505547 0.006062347099)
(0.03156743813 0.0007485357217 0.003685520837)
(0.03967440019 -0.04083932724 0.005443910723)
(0.0284741743 -0.01239244119 -0.001804628995)
(0.0231959479 -0.04629958003 -0.004938814346)
(0.0271271534 -0.03039001953 -0.0005500862694)
(0.03259585997 -0.05299523673 -0.004153278519)
(0.007700923053 -0.02483746769 -0.008896121227)
(0.002446635636 -0.0569813118 -0.007639227025)
(-0.01926116638 -0.03176607944 -0.001137593855)
(-0.01496583136 -0.03725452299 -0.0001246887745)
(-0.006434741543 -0.01865821756 -0.006289950165)
(0.004977589745 -0.04307913052 -0.01215795279)
(-0.02711209768 -0.03028470303 -0.008211283606)
(-0.03589528975 -0.03228436796 0.003496788936)
(-0.0245439365 -0.006182479883 0.0008408788406)
(-0.007383054672 -0.009983350627 -0.009237709126)
(-0.01085936829 0.004398620216 -0.01545403239)
(-0.02057523852 -0.006977619753 -0.006197518614)
(-0.02303422267 0.002145993729 0.003380113367)
(-0.008144138171 -0.007291911012 0.006109358594)
(0.01742684349 0.002366462437 0.004765813501)
(0.03709793402 -0.04032692022 0.006494291973)
(0.02869982971 -0.007913123911 -0.003668950962)
(0.01664718834 -0.0425806654 -0.005603697603)
(0.02294186675 -0.03277697292 -0.002459340889)
(0.03515962687 -0.06286642434 -0.004670394816)
(0.006835939004 -0.03205509081 -0.008704631001)
(-0.001458790591 -0.06606844428 -0.004824854277)
(-0.0121320713 -0.04230246064 -0.00193100524)
(-0.008436399111 -0.04298396468 -0.001624239057)
(-0.009008908968 -0.01670724167 -0.007242368351)
(-0.002760873857 -0.04696395306 -0.009102734938)
(-0.02377761446 -0.04124080802 -0.007958074557)
(-0.02502160328 -0.03904433998 0.002659347772)
(-0.01496098129 -0.003377467538 -0.001684800762)
(-0.006243374298 -0.008133666961 -0.009081792102)
(-0.01271138612 -0.0009629809261 -0.01499440307)
(-0.02280249027 -0.01821182808 -0.004773046785)
(-0.02160765234 -0.007853843631 0.003634746612)
(-0.004305527958 -0.01074660493 0.006384204173)
(0.004971167968 0.009043316609 0.005414978874)
(0.0323517725 -0.03130414041 0.005445353229)
(0.02703661255 -0.0003202784896 -0.004494086552)
(0.005565549567 -0.03616223677 -0.005442142617)
(0.01286371056 -0.02619136286 2.798168731e-05)
(0.0331203141 -0.06417980077 -0.003597331645)
(0.005431231946 -0.03920767461 -0.005908230683)
(-0.004664638072 -0.07022702551 -0.001447936336)
(-0.003008316148 -0.04487898219 0.0005069584153)
(0.003117795888 -0.04708545534 -0.00479586642)
(-0.009270015073 -0.0178266481 -0.006023161463)
(-0.01234404705 -0.04621742291 -0.00508520074)
(-0.02149733898 -0.04391559748 -0.002885358209)
(-0.009202867908 -0.04210797621 0.0003932632668)
(-0.002757686027 -0.006642940665 -0.004198542107)
(-0.005673777322 -0.01161413776 -0.008872714322)
(-0.01800830168 -0.006422084462 -0.00966916668)
(-0.02541283806 -0.02409503232 -0.001279276825)
(-0.0176345694 -0.01216028184 0.006309725994)
(0.004654376381 -0.0115945248 0.00582461778)
(0.001947142902 0.01643486073 0.00356206439)
(0.03042756123 -0.0247051485 0.003150587845)
(0.02542471856 0.001145196431 -0.004778682879)
(-0.001652234028 -0.0373128904 -0.00332570823)
(0.003224660375 -0.01514512404 0.002487112866)
(0.02598167251 -0.06154101987 -0.0002888731545)
(0.002542599226 -0.04351099845 -0.003578245982)
(-0.005382172963 -0.06974628705 0.002142228156)
(0.004170371082 -0.0417181213 0.0003020324837)
(0.01067158151 -0.05449586178 -0.006484812738)
(-0.008413199572 -0.02767349519 -0.006893972752)
(-0.02118295096 -0.04800619494 -0.0008497811779)
(-0.02087017737 -0.03715796668 0.0001197713686)
(0.001245024039 -0.04051928283 -0.000464477368)
(0.006543444846 -0.0148035304 -0.007685258424)
(-0.006057450121 -0.02182327548 -0.007667649034)
(-0.02156816147 -0.01108836003 -0.005436432411)
(-0.02684866892 -0.02197193096 0.003238751644)
(-0.01262672308 -0.004577123764 0.007631674944)
(0.01212855227 -0.007908587822 0.005790829944)
(-0.0006708991642 0.02141599965 0.001386614145)
(0.02141063527 -0.02099994316 0.0003887193874)
(0.01815960803 -0.008201524684 -0.002912066981)
(-0.006068350809 -0.04882831989 -0.002114512217)
(-0.004256805726 -0.009440413177 0.004278648385)
(0.01309923405 -0.05695962868 0.001825699774)
(-0.0003264606804 -0.04090470185 -0.0003601279802)
(-0.003262642065 -0.06010246726 0.002962818169)
(0.007841476841 -0.03420224939 0.00123892162)
(0.01310946382 -0.05882583817 -0.006506443331)
(-0.004665829416 -0.04110904555 -0.004363832735)
(-0.01907346155 -0.05230426862 0.001089357475)
(-0.01626190866 -0.0257156545 0.003647348162)
(0.006497287654 -0.03245585447 -0.0006989611196)
(0.01042365071 -0.02298842934 -0.006210723243)
(-0.00303039992 -0.03388805457 -0.006078262354)
(-0.01804856849 -0.0159889916 -0.001342260494)
(-0.02073414263 -0.01555052525 0.004460152878)
(-0.007502798794 0.008217321772 0.007756827476)
(0.01319671345 -0.001109578528 0.004138447846)
(0.002449267635 0.02255419059 -0.000211849818)
(0.009858798511 -0.02501558154 -0.0001908940511)
(0.00603861584 -0.02096872869 -0.001086881737)
(-0.002365882857 -0.05920885509 0.0008648466298)
(-0.002422078247 -0.008632710116 0.002193891718)
(0.003872121462 -0.04929536197 0.001522142771)
(0.0002021151644 -0.03274374031 -0.0001525180678)
(-0.0007852630855 -0.04941510552 0.001522340462)
(0.004906985685 -0.02760582905 -3.574843984e-05)
(0.005752057239 -0.06810134875 -0.002560333221)
(-0.003830447827 -0.05454556672 -0.002247588939)
(-0.01031362067 -0.05582168651 0.0017990963)
(-0.006749978511 -0.01272744464 0.001833290821)
(0.00326764275 -0.022559269 -0.0003087642174)
(0.00557639353 -0.02612209954 -0.003842019559)
(-0.001139615323 -0.04503969789 -0.002331841517)
(-0.008638529055 -0.02027541959 -0.0004689382073)
(-0.009906017574 -0.007598958203 0.002919536708)
(-0.00247521761 0.02234442829 0.003446455818)
(0.006785470508 0.006006410403 0.001929778683)
(0.1252310124 0.002015003759 -0.0116099636)
(0.1330954039 0.0009793294627 0.01644049475)
(0.09690927218 -0.00530406072 -0.01245674257)
(0.0623301049 -0.007726712877 0.00864464221)
(0.02453898392 -0.003751144013 -0.007149060632)
(0.0136556136 -0.004118765233 -0.003145978821)
(-0.03982254774 -0.001958536293 -0.02360176728)
(-0.06213068477 -0.001308239512 -0.006807161634)
(-0.08643813753 -0.00041017385 -0.02635489578)
(-0.08332735185 -0.001352900861 -0.04235705184)
(-0.08657574545 -0.0001343380566 -0.04930835182)
(-0.07864541313 0.0016873051 -0.04487122679)
(-0.08395615353 0.006609131142 -0.04092439917)
(-0.05420012903 0.007574104659 -0.04791410029)
(-0.03652278945 0.007902074348 -0.04725692435)
(0.00287337819 0.005257711072 -0.04998759845)
(0.01972906223 0.004525364148 -0.03744658543)
(0.04157138801 0.001937446209 -0.02781224802)
(0.04716809541 0.0009191723372 -0.008700197139)
(0.04621038663 -0.0006073266041 -0.002655217479)
(0.12742371 0.004336475216 -0.007269389762)
(0.1279399705 0.002219102271 0.02005313755)
(0.09074912088 -0.01551785763 -0.01179840914)
(0.06341134695 -0.0192122213 0.006556550888)
(0.02706861124 -0.01179685439 -0.0107605905)
(0.01489928874 -0.01122105708 -0.007365261898)
(-0.03785960966 -0.008979435566 -0.02651098312)
(-0.06102167421 -0.004741465937 -0.009528824165)
(-0.0864977312 -0.001655189538 -0.02413972132)
(-0.08311226851 -0.001403707331 -0.03924464985)
(-0.08446317286 0.000227255465 -0.04922599797)
(-0.0738981346 0.006674240543 -0.04781044846)
(-0.07982902485 0.01827846606 -0.04220384282)
(-0.05329802954 0.02222401714 -0.04594255013)
(-0.03814726993 0.0216494815 -0.04473209681)
(0.0004785675868 0.01632815408 -0.05035838104)
(0.01740201269 0.01318746777 -0.03915921627)
(0.03903758201 0.00779029962 -0.02835471486)
(0.04542071658 0.003589380422 -0.00778483996)
(0.0458964966 -0.0005620628367 -0.002008273313)
(0.1300843408 0.005759088413 -0.001356353377)
(0.119097985 -0.002613604967 0.0256959164)
(0.08182311169 -0.0201672622 -0.00920051249)
(0.06490054561 -0.0258324932 0.005343701099)
(0.03016122548 -0.01651912962 -0.01436685796)
(0.01561871092 -0.01759095376 -0.009499016907)
(-0.03527277893 -0.01653245538 -0.0299471662)
(-0.0569601244 -0.01262954255 -0.01348049448)
(-0.08412262599 -0.002534137158 -0.02324757193)
(-0.08194749854 -0.0007993982797 -0.03456834097)
(-0.08094051389 0.003587894556 -0.05084962717)
(-0.06590317181 0.01003008458 -0.05215164422)
(-0.07302654921 0.02751982531 -0.04597127113)
(-0.05183526473 0.03108222453 -0.04370954772)
(-0.04068671451 0.03276658838 -0.0429261604)
(-0.003111200103 0.02489678982 -0.05111805436)
(0.0137216173 0.02217849095 -0.04103803125)
(0.03475844764 0.01411519557 -0.02697389746)
(0.0413454266 0.008573350238 -0.004748637713)
(0.04377272914 5.15499232e-05 4.2836918e-05)
(0.1298900646 0.001555267472 0.002662642894)
(0.109614265 -0.01309988962 0.02885175607)
(0.07450044649 -0.02235729091 -0.004673126171)
(0.06590869015 -0.02693622749 0.005202554517)
(0.03290709304 -0.02124226411 -0.01624963702)
(0.01483702847 -0.02151494561 -0.007962864317)
(-0.03439073457 -0.02334996934 -0.02897918115)
(-0.05113739469 -0.02070999644 -0.01791467903)
(-0.07821726047 -0.005816330664 -0.02295353048)
(-0.07872011175 0.001916035674 -0.03252817476)
(-0.07688591151 0.009972284366 -0.05116828704)
(-0.05702511257 0.01521396104 -0.05750383549)
(-0.06500785201 0.03198885809 -0.04878852766)
(-0.04959269738 0.03628762396 -0.04385985674)
(-0.04251044625 0.04038759821 -0.04151059696)
(-0.006989033522 0.03306873848 -0.05263327758)
(0.009785000269 0.02888922343 -0.04085111245)
(0.02938074269 0.01942956975 -0.02392654849)
(0.03559085393 0.01236936249 0.0003060171041)
(0.03939222509 0.00121065696 0.002761843201)
(0.1221018887 -0.0051955798 0.0004435662247)
(0.1021425924 -0.02752017563 0.02522117116)
(0.0721786189 -0.02034979393 -0.001340165864)
(0.06560373432 -0.02656450936 0.005441413649)
(0.03402658051 -0.02403280162 -0.01770458369)
(0.01406777481 -0.02578968093 -0.003276877495)
(-0.0347264408 -0.02573896545 -0.02495330199)
(-0.04457692166 -0.02762083526 -0.01943735231)
(-0.06822154329 -0.01055903999 -0.02781283351)
(-0.07074292259 0.002993546436 -0.03258530037)
(-0.07162146421 0.0171355518 -0.05221785967)
(-0.05037381164 0.01839627857 -0.05625480057)
(-0.05819744375 0.03167926109 -0.05226733128)
(-0.04589803297 0.03561203222 -0.04499944192)
(-0.04295221472 0.04600308428 -0.04317473767)
(-0.01122369057 0.0390593736 -0.0514852883)
(0.004085823175 0.03361453768 -0.038081393)
(0.02303157056 0.02028978471 -0.01943573715)
(0.02860985375 0.01414027007 0.003975497201)
(0.03370391407 0.001301833658 0.004629245183)
(0.1068253646 -0.01134430113 -0.007637068732)
(0.09877102777 -0.03634330767 0.01507503756)
(0.07524560131 -0.01781659508 0.0001553171103)
(0.06321420322 -0.02552601394 0.005114003192)
(0.03349417627 -0.0275310998 -0.01764101704)
(0.01356613577 -0.03060788203 0.0007571354154)
(-0.03569749907 -0.02439672494 -0.01582071119)
(-0.04040626365 -0.02969967836 -0.01905966581)
(-0.05666303027 -0.01287532236 -0.03255106539)
(-0.05911520707 0.003145362573 -0.03825412121)
(-0.06607108725 0.02483977407 -0.04753747067)
(-0.04677374393 0.02068510008 -0.05142965621)
(-0.05290088634 0.02956441371 -0.05035757279)
(-0.03948899759 0.0332769011 -0.04942734468)
(-0.04007010961 0.04982488776 -0.04387774171)
(-0.01574830747 0.04396581746 -0.04777828853)
(-0.003479124727 0.03625941057 -0.03080367885)
(0.01555903866 0.01804381754 -0.01586252205)
(0.02232841969 0.01280678682 0.004179560704)
(0.02798685119 0.0009151804518 0.003450962072)
(0.08837719171 -0.01048622491 -0.01850811238)
(0.09734153639 -0.03630582365 0.001249532322)
(0.07988809904 -0.01521132144 -0.001067802786)
(0.05864647176 -0.02764977352 0.005055403854)
(0.03048053175 -0.03035151172 -0.01824243279)
(0.01623446477 -0.03853763704 0.002177481581)
(-0.03409523403 -0.02119163665 -0.008858821425)
(-0.03642783525 -0.0264328168 -0.01657116518)
(-0.04506771946 -0.01300411722 -0.04135990885)
(-0.04406525776 0.0003428544734 -0.04342154354)
(-0.05927814213 0.0254802449 -0.0450955103)
(-0.04705166252 0.01806868249 -0.03996954122)
(-0.04934869303 0.02561824497 -0.05039208173)
(-0.0316175644 0.02794834519 -0.05332996197)
(-0.03541208615 0.05036546466 -0.04700910355)
(-0.02082753552 0.04458942939 -0.04031197012)
(-0.01424029047 0.03681414324 -0.02220060029)
(0.006398911095 0.01450581387 -0.01350639456)
(0.01664988655 0.01041404733 -0.0007225500169)
(0.02353750944 -0.000410565858 -0.00028847697)
(0.07370188281 -0.004325610634 -0.02463509222)
(0.09521477474 -0.02859455315 -0.007277063749)
(0.08147268526 -0.01936127454 -0.002161772243)
(0.05244996836 -0.03552301832 0.006702667294)
(0.02586672228 -0.03459209467 -0.0162802702)
(0.02000521442 -0.0493692866 -0.00122033852)
(-0.02717475942 -0.0208854388 -0.004668961189)
(-0.03460627083 -0.02019230354 -0.01578349926)
(-0.03778880017 -0.008774502309 -0.04447655814)
(-0.03189137739 -0.006157299395 -0.0494255489)
(-0.05355061693 0.02155406101 -0.03816541278)
(-0.0467220815 0.01429054408 -0.03260023587)
(-0.04593289393 0.02568494207 -0.04708930739)
(-0.02205833873 0.02289616479 -0.05926596258)
(-0.02832516086 0.0466599552 -0.04745773626)
(-0.02533433137 0.04029396436 -0.03291210243)
(-0.02476125342 0.03586050188 -0.01237825555)
(-0.003160425035 0.01266365029 -0.01333457161)
(0.0119125381 0.008882026394 -0.008134652226)
(0.02049944387 -0.001243629041 -0.006374132157)
(0.06508011658 0.004441971031 -0.02109796481)
(0.08661207365 -0.01916344697 -0.005979941698)
(0.07514154826 -0.02632058696 -0.004863771538)
(0.04783083608 -0.04485269361 0.009293361796)
(0.020775569 -0.03563483186 -0.01420353913)
(0.02590416034 -0.05617988084 -0.006765968694)
(-0.0135141952 -0.0229681362 -0.01014249074)
(-0.02784722763 -0.01561961905 -0.01635996105)
(-0.03520086607 -0.002644062791 -0.04379241748)
(-0.02260557123 -0.01520983522 -0.0469435221)
(-0.04482254066 0.01001534348 -0.03698222495)
(-0.04418701968 0.009957056379 -0.02742054837)
(-0.04327166777 0.02807190191 -0.04690381983)
(-0.01684898189 0.01882445098 -0.06026242753)
(-0.02312454862 0.03674812368 -0.04877773003)
(-0.02843827158 0.02992669747 -0.0262222823)
(-0.03379787773 0.0327407193 -0.00653866007)
(-0.01272926416 0.01299757263 -0.01314456601)
(0.006924115537 0.01046994327 -0.01515524211)
(0.01777350761 -0.001333391454 -0.01104869469)
(0.06328475993 0.01052654492 -0.009812374351)
(0.07354032637 -0.01399515936 0.003123066876)
(0.06352934953 -0.02809072185 -0.006567305178)
(0.04581009613 -0.04862799081 0.01078748234)
(0.017935859 -0.03064851521 -0.008731237455)
(0.0289422 -0.05368859303 -0.01144390041)
(0.001450313724 -0.02810562768 -0.01762140545)
(-0.02020740533 -0.01892112981 -0.01961197354)
(-0.03753974709 0.0005054652553 -0.03232249219)
(-0.02292169168 -0.02272151493 -0.04012821015)
(-0.03576587762 -0.002663309447 -0.0361422979)
(-0.0340491839 0.00423536673 -0.03071758943)
(-0.03967755214 0.03097869982 -0.04276584144)
(-0.01597170514 0.01489788577 -0.05681153435)
(-0.02046720065 0.02405378481 -0.04437806036)
(-0.02812427021 0.01430568689 -0.02350237424)
(-0.03674991642 0.02604052412 -0.003745777656)
(-0.01896145173 0.01396436397 -0.01300880543)
(0.001856234096 0.01541585312 -0.01670477148)
(0.01371574951 -0.0009153490777 -0.01241674461)
(0.06264029751 0.01330521916 -0.001235510503)
(0.05946956821 -0.01395568293 0.008757416747)
(0.05091232888 -0.01907535352 -0.0106537583)
(0.04597278277 -0.04551864503 0.00988765381)
(0.01723748147 -0.01887740378 -0.003648650549)
(0.02769878979 -0.04277011461 -0.01168973545)
(0.01101448153 -0.03004610342 -0.02685608068)
(-0.007559062947 -0.02855650785 -0.02258200629)
(-0.03793620622 0.0007513558273 -0.02287295789)
(-0.02483077255 -0.02417846326 -0.02921197856)
(-0.02576941053 -0.00878339982 -0.03963535127)
(-0.02052386161 -0.001673192523 -0.03548776587)
(-0.03575859648 0.03090667259 -0.04187561128)
(-0.02177750936 0.01247158821 -0.04640615003)
(-0.02352346283 0.01249276355 -0.03866798759)
(-0.02699061116 -0.002163307397 -0.02268951446)
(-0.03404978204 0.01617429179 -0.00652495938)
(-0.02028304149 0.01373341257 -0.01174642205)
(-0.003561538507 0.02041166266 -0.01327778213)
(0.007230411764 0.0008985756393 -0.009255078958)
(0.06283848735 0.01282100317 0.0005361588845)
(0.05079227965 -0.01621547394 0.00861488538)