/*--------------------------------*- C++ -*----------------------------------*\
| =========                 |                                                 |
| \\      /  F ield         | OpenFOAM: The Open Source CFD Toolbox           |
|  \\    /   O peration     | Version:  5.x                                   |
|   \\  /    A nd           | Web:      www.OpenFOAM.org                      |
|    \\/     M anipulation  |                                                 |
\*---------------------------------------------------------------------------*/
FoamFile
{
    version     2.0;
    format      ascii;
    class       surfaceScalarField;
    location    "0.4";
    object      phi;
}
// * * * * * * * * * * * * * * * * * * * * * * * * * * * * * * * * * * * * * //

dimensions      [1 0 -1 0 0 0 0];

internalField   nonuniform List<scalar> 
91025
(
4.72531436
-0.1238355694
0.04482198244
3.662820153
-0.3082541227
-0.02041156407
2.113753649
-0.4393360861
-0.06345896272
0.281254846
-0.5106908163
-0.08216710142
-1.560632024
-0.5486500351
0.06474047863
-2.813701243
-0.5245549259
0.2943291281
-3.256756782
-0.4428779796
0.5109857097
-3.147782487
-0.3200295817
0.5129721372
-3.013746897
-0.1777072251
0.2908929772
-3.241133474
-0.02861100931
-0.1062515887
-3.673988498
0.1296311938
-0.4266450996
-3.780234346
0.2884814017
-0.5015044173
-3.079432714
0.4247361418
-0.3191368081
-1.625275218
0.5087497803
-0.01051199001
0.1612669839
0.5267569357
0.1605192869
1.731954952
0.5010856566
0.1661889735
2.987678441
0.4540964483
0.04941873148
3.938334333
0.3759658416
0.02785797664
4.609632704
0.2631667909
0.02623682562
0.1027186448
0.04627041556
4.6316036
-0.2421383898
0.04413356735
3.601946806
-0.6046885728
-0.01826263504
2.075499706
-0.8655506737
-0.05717312013
0.264631897
-1.007746843
-0.07314753916
-1.550044513
-1.075208144
0.07399832429
-2.775770088
-1.02250887
0.299157782
-3.196961673
-0.8584504859
0.5077364182
-3.07557644
-0.615936595
0.5062419594
-2.936232197
-0.3376288095
0.2872198143
-3.159303677
-0.04848326706
-0.09972379806
-3.593148741
0.2560047979
-0.4134202759
-3.714382554
0.5578109043
-0.4886991257
-3.040706023
0.8199995272
-0.3142347127
-1.614090101
0.9864594069
-0.01581834299
0.1524302975
1.031119298
0.1511200802
1.707861952
0.9867538514
0.1569496125
2.947284593
0.8929473113
0.04217768858
3.875813833
0.7358608615
0.01941989288
4.527217025
0.5108308897
0.01633148723
0.1974522912
0.04059444351
4.451663123
-0.345528308
0.04435410756
3.484357287
-0.8694668621
-0.01233353215
2.00288485
-1.256755044
-0.04477272943
0.2357786179
-1.469439038
-0.05650406742
-1.527907762
-1.558508717
0.09077584525
-2.703029303
-1.471678446
0.3081566718
-3.083750168
-1.225671947
0.503069756
-2.939635502
-0.8694663327
0.4955216719
-2.791146663
-0.4670392526
0.2818411657
-3.008188269
-0.05426206829
-0.08703527619
-3.444290269
0.3740305073
-0.3888352389
-3.593312049
0.7941706226
-0.4643219009
-2.967899697
1.164400232
-0.3034644192
-1.590487099
1.408525037
-0.02257106132
0.1376408876
1.488447274
0.1375255835
1.663019199
1.437205427
0.1443475879
2.870347828
1.298985307
0.03309829972
3.756931549
1.063431753
0.007435955429
4.372682767
0.729625086
-3.544989633e-05
0.2786482517
0.03062946611
4.188378422
-0.4203833881
0.04702984656
3.306535985
-1.074699405
-0.0009032493123
1.894596516
-1.580469009
-0.02579676293
0.1973605832
-1.863777135
-0.0332884878
-1.489548513
-1.974228716
0.1126323528
-2.590999839
-1.849782132
0.3208589583
-2.915745438
-1.525305347
0.4985906084
-2.742667175
-1.066855793
0.483592515
-2.584315511
-0.5586907587
0.2764337242
-2.795868072
-0.04566004533
-0.07008019476
-3.235304534
0.4776983016
-0.3557373303
-3.420869258
0.9887592159
-0.4300907569
-2.858339094
1.445586312
-0.2858378109
-1.549103428
1.759027541
-0.02639506543
0.1196779319
1.87733775
0.1246150738
1.597141279
1.823299129
0.1336113394
2.754704613
1.643157198
0.02645014928
3.581344194
1.335557353
-0.004052368687
4.149344992
0.9050287169
-0.01685714713
0.3417440647
0.01754323954
3.858056457
-0.4549878614
0.05301755273
3.071253663
-1.195141249
0.02028667329
1.750919191
-1.803988913
-0.0001315948383
0.1492104605
-2.157019953
-0.003920419688
-1.434547999
-2.292994528
0.1413736265
-2.440628818
-2.130651031
0.3391686768
-2.69826639
-1.736731192
0.4993303536
-2.494087545
-1.194263148
0.4753091184
-2.328267387
-0.6076494273
0.27341049
-2.537269944
-0.02586676679
-0.0520353251
-2.982922089
0.5577693261
-0.3187491376
-3.207048181
1.131500229
-0.3908716934
-2.715205112
1.653711497
-0.2638810824
-1.488676439
2.025662242
-0.02691540311
0.1010933944
2.181024601
0.1143192545
1.512713618
2.124149016
0.1269952528
2.602709843
1.903553245
0.02402130186
3.356040411
1.532993089
-0.01316861066
3.869413942
1.024629147
-0.03659666865
0.3814814574
0.00278820684
3.483320999
-0.4453214369
0.06137846098
2.787203127
-1.221359038
0.04777315422
1.57237951
-1.905262465
0.04083508044
0.08990924645
-2.320137886
0.04047270578
-1.364441
-2.481036803
0.1790352849
-2.255891188
-2.285794458
0.3653410294
-2.439679011
-1.841039328
0.5073457813
-2.206750093
-1.244839007
0.472650537
-2.03821756
-0.6185134155
0.2727479918
-2.248032262
-0.007597757205
-0.03519185673
-2.700871651
0.6030168857
-0.2837088096
-2.961131485
1.209886301
-0.3535689716
-2.542743571
1.77479105
-0.2430329726
-1.411021026
2.191185049
-0.02797924862
0.0815066759
2.379238221
0.1042194912
1.410849486
2.314568794
0.1209360971
2.418780143
2.054336186
0.02265832587
3.092832435
1.632134524
-0.02277072026
3.548335854
1.073920387
-0.05649783928
0.3917551263
-0.01169493677
3.090832304
-0.3986578805
0.07010687529
2.46833691
-1.158955696
0.07845542205
1.362988954
-1.879139278
0.08948703453
0.020094092
-2.336349202
0.09716133364
-1.280967519
-2.513159511
0.2290817149
-2.043629928
-2.292970273
0.4011161888
-2.153033127
-1.827535033
0.5240038772
-1.8991297
-1.221249315
0.4761248883
-1.734281843
-0.6021890223
0.2743514654
-1.946558222
-0.001034252347
-0.02141646676
-2.404080741
0.6055438934
-0.255938227
-2.692993543
1.217269465
-0.32476907
-2.346470004
1.801530063
-0.2292362674
-1.318993116
2.244932163
-0.03542312827
0.05935539027
2.457601158
0.08820944841
1.291420439
2.377415003
0.1081600862
2.21053136
2.079411009
0.01528902308
2.807550369
1.614013353
-0.03665735201
3.206978951
1.038401141
-0.07580369218
0.365276275
-0.02564667048
2.707657195
-0.3352640809
0.0753774962
2.13363147
-1.032745959
0.1046648428
1.134751073
-1.739433516
0.1386077956
-0.05664650605
-2.205874595
0.1603661038
-1.189534367
-2.383010383
0.2880874383
-1.819326342
-2.149629458
0.4447048021
-1.860455926
-1.69840279
0.5485324184
-1.593918231
-1.128384274
0.4872666898
-1.434552945
-0.5608617393
0.2810302645
-1.647228109
-0.005975440392
-0.009843645192
-2.104730268
0.5693968775
-0.2380050283
-2.413731685
1.158158912
-0.3091778397
-2.13486158
1.739218782
-0.226532784
-1.218149369
2.192527643
-0.05181961555
0.03180193445
2.419490282
0.06358179382
1.153717509
2.318060421
0.08448576583
1.983891859
1.987095863
-0.0003982703769
2.516580353
1.487681624
-0.0547094758
2.871448123
0.9251433854
-0.09154393022
0.3051946392
-0.03520215119
2.356168596
-0.2753662848
0.07531098109
1.805675012
-0.8875470642
0.1200333173
0.9057582803
-1.534818767
0.1786438125
-0.1335695013
-1.9626086
0.2188066371
-1.09508055
-2.113687656
0.3467358303
-1.599750613
-1.87683745
0.4895244236
-1.585212292
-1.470988008
0.5784753062
-1.312091045
-0.977650638
0.506864798
-1.156273075
-0.4932481819
0.2947171973
-1.364389072
-0.01231768718
-0.0001984857263
-1.815883967
0.5043883966
-0.2314860131
-2.134494284
1.045319531
-0.3084650352
-1.915578839
1.605257423
-0.2355635214
-1.113313321
2.056099299
-0.07540485826
-0.001242032392
2.290151969
0.03413304707
0.9979812345
2.168947627
0.05507675434
1.744081026
1.813029643
-0.02565445197
2.233407115
1.29710566
-0.06898355826
2.566212085
0.7688204466
-0.09757381479
0.2298395502
-0.03661342344
2.048767566
-0.2305625074
0.06922703775
1.504008951
-0.7480674258
0.1211973423
0.6975626159
-1.307381484
0.2003988445
-0.19980557
-1.664816663
0.2596567133
-1.002781086
-1.761930914
0.3916065531
-1.400438305
-1.526878002
0.5264109442
-1.345224376
-1.180688266
0.6091011206
-1.068894218
-0.7814971558
0.5335267916
-0.9144154576
-0.3973424737
0.3152547938
-1.111420358
-0.01111589341
0.009098601844
-1.548516059
0.4273459234
-0.2349947685
-1.864677089
0.9103787277
-0.3208758495
-1.696083906
1.439501305
-0.2544413794
-1.009366769
1.880918082
-0.1019065063
-0.04870735439
2.120748466
0.006717457993
0.8300306492
1.989997044
0.02860019012
1.501636703
1.620936111
-0.04528375428
1.968720736
1.110060454
-0.07259754752
2.304657822
0.6208315597
-0.08869840175
0.161773374
-0.02882492082
1.787380465
-0.202974166
0.0588252775
1.242599231
-0.6275485715
0.1087106508
0.5242058757
-1.09193783
0.1982827834
-0.2438829951
-1.358525355
0.2710945656
-0.9106287983
-1.389418455
0.4087093791
-1.226322318
-1.154294186
0.5433351689
-1.149973921
-0.8653883039
0.6318349251
-0.8755781754
-0.5604117007
0.5614373886
-0.718905772
-0.2810682679
0.3386224126
-0.8985799701
0.0002180143921
0.01629512857
-1.309906328
0.3512257233
-0.2478913384
-1.608931228
0.7732588157
-0.344286457
-1.476560566
1.269900927
-0.2796116759
-0.9030484905
1.697593733
-0.1268531393
-0.1008515651
1.943428697
-0.0164475482
0.6556107517
1.813824039
0.0119519719
1.26397451
1.442581129
-0.05196862884
1.726159054
0.9525995918
-0.0606300041
2.087152971
0.5070929372
-0.06354872953
0.1140322595
-0.01181289338
1.569571102
-0.1884894623
0.04765010197
1.037107738
-0.5362730617
0.08729714606
0.3966172833
-0.9227031081
0.1743884588
-0.2568680847
-1.096358679
0.2519942929
-0.8149592625
-1.067028773
0.3915443019
-1.076484601
-0.8291837805
0.5315085027
-1.001306365
-0.5841957155
0.6377441792
-0.7383663653
-0.3540250301
0.5816914448
-0.5801068151
-0.1651327923
0.3595246924
-0.736061942
0.01584262743
0.02085158066
-1.102032248
0.2789555476
-0.2652737585
-1.369921868
0.6477486375
-0.3723991083
-1.261589383
1.119528067
-0.3063992465
-0.7965191291
1.537788333
-0.1469851986
-0.1517136289
1.786074529
-0.03172218478
0.484644048
1.665531873
0.006156820928
1.039143741
1.301441479
-0.04363786625
1.511639604
0.8428655501
-0.03275270376
1.90492521
0.4410436701
-0.02297163996
0.09118616585
0.01108253152
1.386177601
-0.1854985707
0.03887781742
0.8763085357
-0.485989386
0.06520947549
0.3125406652
-0.8171333389
0.1350821838
-0.2375060951
-0.920585096
0.2041547107
-0.7113611477
-0.8503837978
0.3411571105
-0.9486991589
-0.6116939831
0.4878515528
-0.8890376564
-0.3919092467
0.6175997941
-0.6508828707
-0.2046147845
0.583876264
-0.4888335029
-0.07996260726
0.3692613342
-0.6088110607
0.02444180972
0.0213429999
-0.9198288084
0.2147727301
-0.2815961887
-1.142434151
0.5422750123
-0.3964737194
-1.06041107
0.996114037
-0.3283193268
-0.6965224995
1.411445849
-0.1615737854
-0.1999360553
1.6667473
-0.03976442582
0.3209830853
1.560820211
0.005836930034
0.8302417253
1.215931211
-0.02589546749
1.323332386
0.78845409
-0.001383495979
1.745221042
0.4270748798
0.02294097068
0.09239693104
0.03865009601
1.22452962
-0.1954658189
0.03186498875
0.745162739
-0.4841357258
0.04370753369
0.2588173222
-0.7812128227
0.09582239226
-0.1958323329
-0.8421980719
0.1506817725
-0.6101279604
-0.7630422291
0.2699174822
-0.8376484205
-0.525650007
0.4186956982
-0.7982776324
-0.3119061208
0.5744617195
-0.5894931575
-0.1347931285
0.5659282797
-0.4284523607
-0.04350315904
0.3662720667
-0.5095945222
0.02015170305
0.02209278169
-0.757939132
0.1659663818
-0.2866248535
-0.9277763718
0.4636031965
-0.4065924761
-0.8666265438
0.901507706
-0.3388192229
-0.5949171304
1.311447647
-0.1692177405
-0.2407699776
1.572899725
-0.04901851058
0.1692526753
1.49381243
-0.00135910104
0.6359958964
1.189972576
-0.0158504649
1.145764743
0.7940952154
0.02848485251
1.594724789
0.4623733201
0.07219852278
0.1113113435
0.06637906034
1.068875181
-0.2194944853
0.02417262328
0.6298831469
-0.5276998837
0.02288328411
0.2204045666
-0.8079275213
0.05576543369
-0.15081017
-0.8518851902
0.09729373662
-0.5131726292
-0.7870430057
0.2001812104
-0.732693913
-0.5510676734
0.3394346577
-0.7165329129
-0.3240489739
0.5082366333
-0.5399146064
-0.1299814093
0.5258912565
-0.3845163804
-0.03754517433
0.3497105606
-0.4280638718
0.01414651857
0.02324088309
-0.6112772633
0.1406182346
-0.2759711319
-0.72675917
0.4182589265
-0.3945049744
-0.6765936231
0.8362886684
-0.3299362963
-0.4898486269
1.225549162
-0.1715286459
-0.2684989175
1.487968895
-0.06418118172
0.03830242616
1.447402942
-0.0164912425
0.4579634359
1.216378385
-0.01748505362
0.9708884917
0.8609064243
0.0459211012
1.436520302
0.5474252508
0.1110074069
0.1483742639
0.08954064557
0.9052988667
-0.2530223862
0.01577503493
0.5190538875
-0.596989162
0.003838902855
0.1848549788
-0.8726140269
0.02122026638
-0.1107303663
-0.9156319118
0.05150461808
-0.419841589
-0.880347873
0.1395181428
-0.6249017287
-0.6491878436
0.2665739305
-0.6312200082
-0.3950753403
0.4308616424
-0.4881897404
-0.1594645392
0.4688956045
-0.3460896456
-0.03203761943
0.3230692078
-0.3540101666
0.03682052924
0.03049382177
-0.4737903346
0.1606931566
-0.2421472741
-0.5397036239
0.4202456031
-0.3544983778
-0.4962029103
0.8026743957
-0.2990235002
-0.3814943283
1.149380575
-0.1675415532
-0.2743679049
1.404071959
-0.08134576295
-0.07412176468
1.410720904
-0.04037692269
0.3023767275
1.289470744
-0.03105376115
0.7962379457
0.9869101959
0.04679721053
1.260000432
0.6809247262
0.1322023329
0.2106328508
0.1031818484
0.7261521884
-0.2873133018
0.006700052664
0.4077081492
-0.6634893378
-0.0133852319
0.1476417056
-0.9380408709
-0.007627641097
-0.07816382079
-0.9848125063
0.01585164583
-0.3284942207
-0.9744871338
0.08782123465
-0.5087383501
-0.7484183125
0.1980600822
-0.5337163809
-0.4618059751
0.3470426972
-0.4232883723
-0.1665396244
0.3960120783
-0.3004009787
0.01102542352
0.2827333524
-0.2806607044
0.1132640117
0.0390227374
-0.3419932018
0.2478288505
-0.1898238589
-0.3680513003
0.4779979858
-0.2901522617
-0.3315652066
0.8052668143
-0.2504636904
-0.2743675664
1.084433226
-0.1508098611
-0.2541408712
1.311542976
-0.09106554132
-0.1460413616
1.372535503
-0.06185388834
0.1741146805
1.382036827
-0.04683008113
0.6161327585
1.148548654
0.03579324103
1.046786074
0.8502999471
0.1314657085
0.2953671335
0.1029447662
0.5292612156
-0.3157964634
0.0006499374428
0.2912136906
-0.7130957891
-0.02322402035
0.1034585036
-0.9852155577
-0.02469254113
-0.05796581637
-1.030099618
-0.004915129087
-0.2428991955
-1.031075019
0.05216587473
-0.3802863323
-0.8008690892
0.1398407726
-0.403820005
-0.4789398249
0.2621617686
-0.3245379261
-0.1354961777
0.3066256951
-0.2307827718
0.08239937652
0.2256028655
-0.2027039754
0.2256054349
0.04122903009
-0.2270475547
0.3675864806
-0.1322338559
-0.2284858738
0.5637607206
-0.2128654556
-0.1973001466
0.8305905274
-0.1875730389
-0.1750614355
1.030741329
-0.1208724682
-0.204225587
1.216601154
-0.08675143796
-0.1625614561
1.323321464
-0.07020903203
0.07909845966
1.465111759
-0.05316732382
0.4361075818
1.313182962
0.02118778987
0.7917443078
1.02738395
0.110449013
0.3886651266
0.08742140775
0.3205778449
-0.3318066899
-0.002126462768
0.1744620603
-0.7374537308
-0.02034536481
0.06163400235
-1.00461253
-0.02441127543
-0.03436635108
-1.043169438
-0.01160179671
-0.1467537015
-1.043751641
0.02637550604
-0.2338672007
-0.8087713679
0.08330902721
-0.2529671299
-0.4641930196
0.1629994321
-0.2082367471
-0.09346734885
0.1946988118
-0.1503993815
0.1559450777
0.1460732292
-0.1253790677
0.3256787588
0.03267376199
-0.129198266
0.4749749993
-0.07601281572
-0.1217798841
0.6450627206
-0.1271550957
-0.1003971543
0.8636412866
-0.1138494634
-0.09540095742
1.004628435
-0.07621310977
-0.1338446564
1.149407242
-0.06126883736
-0.1259031007
1.283542789
-0.05393383685
0.02664606507
1.527102764
-0.04035719179
0.2633228803
1.440508179
0.01156468593
0.4997180797
1.162272898
0.07469708892
0.4620802344
0.05923123355
0.1083217875
-0.001549452731
0.05829985791
-0.009601050242
0.02008455643
-0.01197101101
-0.01270493851
-0.007637545525
-0.05167039155
0.007134641356
-0.08172741646
0.02780479534
-0.08856485464
0.05749572937
-0.07317302828
0.06918296263
-0.05292964489
0.05345694512
-0.04276474838
0.01386845747
-0.04099727508
-0.02358759175
-0.03546281773
-0.04215783726
-0.02725492353
-0.0381568208
-0.02779148659
-0.02700565739
-0.04695740233
-0.02409821902
-0.05039022438
-0.0230483313
0.001843412593
-0.0173872636
0.08810618973
0.002372727232
0.1751534392
0.02704213532
0.02163689036
4.732556327
-0.1280012471
0.005266905191
3.614067307
-0.3001776627
-0.1834583733
2.170868135
-0.4132547303
-0.2530380145
0.5480503097
-0.471201583
-0.3240342721
-1.147419834
-0.5071518678
-0.1255905419
-2.481013192
-0.5080316291
0.1949129086
-3.29892212
-0.4569727862
0.5878402689
-3.647947382
-0.3473024422
0.6649940521
-3.782816421
-0.1918234833
0.4139911295
-3.892571336
-0.001025329691
-0.1091919134
-3.875069115
0.1876568374
-0.5248718745
-3.500232072
0.3466193312
-0.5704844887
-2.600521039
0.4505842246
-0.2466946783
-1.291934862
0.4922362103
0.2321894284
0.1923742141
0.4876239592
0.4968663026
1.614968205
0.4647664608
0.518544235
2.951931379
0.4253906042
0.3176058677
4.011537959
0.3456070023
0.2592423448
4.683470417
0.2254330143
0.1660524742
0.08151734137
0.1309869183
4.642157128
-0.2455887817
0.006012043811
3.557167569
-0.580703561
-0.1786175305
2.137614758
-0.8093517881
-0.2464965898
0.5315234912
-0.9310095504
-0.3154373039
-1.148089563
-1.002103201
-0.1155369373
-2.456283612
-0.9916748137
0.2031181489
-3.243603831
-0.8813549904
0.587949715
-3.566745438
-0.6626850767
0.6605150594
-3.683941188
-0.3604560974
0.4122405591
-3.793941075
0.003726408405
-0.1011041159
-3.79383911
0.3655813901
-0.5103794512
-3.448538868
0.6708199994
-0.558237756
-2.578018957
0.8767113286
-0.2438691892
-1.291341518
0.9692597245
0.2249650063
0.1816079853
0.9731863234
0.486081964
1.591983541
0.9336801087
0.5097884447
2.909385764
0.8549578822
0.3101742493
3.948233571
0.6919161875
0.2493224953
4.60685494
0.4484457261
0.1528576955
0.1599701633
0.1228034802
4.471356807
-0.341504568
0.009961119011
3.447455842
-0.8198836928
-0.1652187096
2.072504236
-1.165488208
-0.2314201702
0.4999243928
-1.358073775
-0.2980772105
-1.144790837
-1.462636803
-0.09682038411
-2.407026065
-1.425188995
0.2183502311
-3.139188643
-1.244716381
0.5880523449
-3.414925505
-0.9201419276
0.6522664614
-3.500818641
-0.488841324
0.4089052754
-3.61177395
0.01694858014
-0.08688347451
-3.643885413
0.5214047457
-0.4830486104
-3.351946927
0.9501006432
-0.534154774
-2.534284519
1.251714584
-0.2363308724
-1.287831615
1.405956811
0.2145816914
0.1643253051
1.436319429
0.4700606773
1.549745734
1.394976167
0.4974141605
2.826757606
1.275176817
0.2995999161
3.825614626
1.025972729
0.2337560305
4.460644137
0.6594241289
0.1297248709
0.2310031473
0.108215686
4.22702227
-0.4048761401
0.01995810251
3.282919173
-0.9961718664
-0.1414416712
1.972168528
-1.451858339
-0.2060502928
0.4545175701
-1.718151216
-0.2705191689
-1.128481813
-1.853454666
-0.06954269457
-2.324455631
-1.781597886
0.2405634516
-2.984239463
-1.526476019
0.5917150998
-3.199408312
-1.105004158
0.6447590352
-3.248488081
-0.5717735888
0.4067937539
-3.360608509
0.03432263557
-0.06725900403
-3.434093637
0.64055799
-0.4456655127
-3.210948042
1.163779085
-0.4996322347
-2.463328566
1.550496045
-0.2232584368
-1.272327109
1.771871621
0.2026034401
0.144519417
1.841757041
0.4496015712
1.487155066
1.80438358
0.4828152631
2.702226418
1.641901245
0.2866261725
3.643141128
1.309764683
0.2140001459
4.245913927
0.8364804451
0.1002302676
0.2885512738
0.08859046146
3.923247285
-0.4289406603
0.03595340012
3.06654319
-1.093348733
-0.1062124922
1.834703558
-1.640077831
-0.16661608
0.3955316404
-1.973905884
-0.2300082344
-1.096795287
-2.137688771
-0.03156918461
-2.205559142
-2.032917392
0.2731257695
-2.782596635
-1.708686251
0.6018732885
-2.933761362
-1.208837274
0.6402388148
-2.947913303
-0.6093514824
0.4055414706
-3.059850515
0.04984601804
-0.04631270433
-3.176639305
0.7099915778
-0.4036888828
-3.027963826
1.294789577
-0.4593861991
-2.360525979
1.75217996
-0.2059889562
-1.235100553
2.037787448
0.1905351103
0.1263713151
2.151869142
0.425533478
1.405051325
2.11531343
0.4632198892
2.536855779
1.911486061
0.2695768449
3.404898364
1.508126816
0.1903316053
3.971095358
0.9591996613
0.06565899445
0.3270772641
0.06603271683
3.582175404
-0.4152507571
0.05444426328
2.807992761
-1.107588023
-0.0621912604
1.664208
-1.716629276
-0.1129466324
0.3241371157
-2.101637422
-0.1719848157
-1.051145048
-2.287490138
0.02273176216
-2.052521223
-2.154039014
0.3208464298
-2.543032871
-1.779932737
0.6233982697
-2.635666797
-1.231657239
0.642728839
-2.621421449
-0.6078436775
0.4070787289
-2.733858826
0.05643853705
-0.0257378939
-2.887750911
0.7211371631
-0.3627665212
-2.810444307
1.332673912
-0.4199128676
-2.226541377
1.843245433
-0.1915881138
-1.176132113
2.183570904
0.1734817446
0.1095538315
2.335806763
0.3927344486
1.304225286
2.288536469
0.4334114977
2.337579592
2.046951998
0.2443264562
3.124831938
1.595006725
0.1595255409
3.653747227
1.010530998
0.02877686506
0.3420759955
0.04182669952
3.228865795
-0.376825002
0.07054100912
2.52239427
-1.0578081
-0.01706592443
1.468580215
-1.693409206
-0.04636111171
0.2428453329
-2.101769399
-0.09276814813
-0.9946981511
-2.294322571
0.1067530467
-1.874414907
-2.134020216
0.3867153124
-2.279984243
-1.734895889
0.6568235597
-2.325773645
-1.17511248
0.6520914043
-2.292772572
-0.5718461704
0.4103615801
-2.405453238
0.04929379567
-0.007982555745
-2.585435927
0.6750980215
-0.3288548686
-2.566299761
1.279992557
-0.3895874465
-2.063761506
1.82281624
-0.1874760521
-1.099994981
2.205581027
0.1447306315
0.09067917125
2.385738096
0.3441374971
1.186435106
2.315291096
0.3847820618
2.115871188
2.040259613
0.2039618139
2.824175362
1.56553314
0.117964265
3.318965988
0.9881110727
-0.007459282598
0.3313373442
0.01988643506
2.884183292
-0.3330627845
0.07832220412
2.228954025
-0.9746820776
0.02163611546
1.262940591
-1.597478683
0.02312119585
0.1594847468
-1.99566521
-0.002490374172
-0.9296324707
-2.171227747
0.2070274975
-1.683168148
-1.983867823
0.4657644416
-2.012105739
-1.582705487
0.7011320719
-2.02537661
-1.046573735
0.6706814713
-1.984094809
-0.503259221
0.4197744718
-2.095559223
0.03392959282
0.007907495283
-2.287163025
0.5851038469
-0.3046157685
-2.307005051
1.152925915
-0.3724311022
-1.879297186
1.708098154
-0.1981915232
-1.014589977
2.122593396
0.1027269269
0.06440305527
2.324797234
0.2796441342
1.053833465
2.225760263
0.3193037875
1.888018397
1.92398575
0.1521428706
2.528808221
1.448197491
0.07554526368
2.993254046
0.9104265248
-0.03747725777
0.3003037067
0.004199388898
2.559878699
-0.2947377843
0.0762245735
1.944114536
-0.8844628298
0.04689467616
1.063132913
-1.470744209
0.08999840197
0.08528672243
-1.831713045
0.0993934961
-0.8548915722
-1.960955248
0.3093554033
-1.48832695
-1.741020106
0.5461449679
-1.756186023
-1.350036836
0.7506628671
-1.754743905
-0.8618411362
0.698573085
-1.715667776
-0.4065486239
0.4375353357
-1.821616595
0.01919407767
0.02558000084
-2.007750472
0.4715512123
-0.290760059
-2.042121599
0.9798028608
-0.371898123
-1.67769089
1.530608831
-0.2228814525
-0.9218116096
1.970776908
0.05148593489
0.03026466204
2.201099434
0.2085429343
0.9090901098
2.086243537
0.2491385225
1.663016181
1.768946892
0.1002492517
2.254605058
1.302928826
0.04371009546
2.695617364
0.8165345022
-0.05158812354
0.2620734085
6.667350534e-05
2.263102996
-0.2662850889
0.06448337026
1.678499433
-0.7999558066
0.05379363913
0.8831189573
-1.33792232
0.1343596607
0.03270218803
-1.647416125
0.1811011107
-0.7686304434
-1.718816102
0.3940544277
-1.29585091
-1.463999876
0.6126062861
-1.5234073
-1.087690888
0.7970615512
-1.525871372
-0.6566088689
0.7320887703
-1.50017635
-0.2980151573
0.4625764294
-1.596748655
0.01023822999
0.04341825328
-1.757266786
0.3571529477
-0.2871914342
-1.780049232
0.79709496
-0.3835289221
-1.462727752
1.335032018
-0.2565527101
-0.819619816
1.796709758
0.0009338378973
-0.005438882713
2.058616343
0.1413540192
0.7590694507
1.946529108
0.1851537327
1.446369675
1.625242718
0.05732454682
2.005792691
1.173234234
0.02705215938
2.429170873
0.736117272
-0.045434044
0.2298035181
0.007968208647
1.991642029
-0.2448422115
0.04735289412
1.435117673
-0.7169056703
0.04571719092
0.7299490351
-1.211729049
0.1505022799
0.007379447017
-1.463276955
0.2260601488
-0.6652706925
-1.479750334
0.4402885983
-1.107653881
-1.197688844
0.647628151
-1.317315838
-0.8390669721
0.8285609027
-1.347065215
-0.4650171801
0.7628415253
-1.347212923
-0.1955053474
0.4895658249
-1.429541748
0.009064460796
0.05782014888
-1.540920867
0.2613111246
-0.2935281704
-1.523274302
0.6380642831
-0.407593238
-1.235773278
1.156949809
-0.2950076042
-0.704564912
1.626884301
-0.05452278951
-0.04387400114
1.914841218
0.08634337264
0.6079096822
1.812876395
0.1372371902
1.238544837
1.497595079
0.03255935279
1.782735973
1.073261498
0.03060841165
2.191903665
0.6841613842
-0.01933902391
0.2123363465
0.02642593003
1.746320078
-0.2298944973
0.03408366037
1.220904268
-0.6441376019
0.03245049933
0.6051632358
-1.105160833
0.1417978674
0.006817476573
-1.300130264
0.2333810793
-0.5464692113
-1.278828564
0.43992648
-0.9306895389
-0.9873673378
0.6399164915
-1.140136275
-0.6498637234
0.8324420296
-1.214905666
-0.3231620427
0.7799366033
-1.245222013
-0.1196792651
0.5105099607
-1.306011817
0.01330772049
0.06822881444
-1.354362312
0.1971374747
-0.3051801937
-1.278032643
0.5276404548
-0.433644453
-1.010743965
1.021941409
-0.3307296917
-0.5829725018
1.480264186
-0.09785238493
-0.07324764731
1.779014748
0.04548274703
0.4644522937
1.683807767
0.1059106914
1.04622055
1.384103796
0.02707436497
1.579786954
0.9944199309
0.04884571015
1.97249567
0.6593213708
0.02002366796
0.2086163353
0.0506900732
1.526448212
-0.2269302422
0.0236867025
1.029798573
-0.6003886325
0.017060423
0.5053654573
-1.033170451
0.1188808714
0.02558000737
-1.18166402
0.2049362054
-0.4229022559
-1.146319521
0.3911370207
-0.7663226976
-0.8657245321
0.5876375463
-0.9883540528
-0.5559065843
0.7986436067
-1.112789295
-0.2593236102
0.7710207359
-1.172325119
-0.08951635302
0.5146702134
-1.209827677
0.01775506302
0.07096267134
-1.188954488
0.1751824226
-0.3156287768
-1.051316395
0.4799240383
-0.4555506352
-0.7954704179
0.9452552806
-0.3588853992
-0.4615340293
1.372384
-0.1315318316
-0.09786163544
1.649689038
0.01168572474
0.3301315185
1.55403989
0.08572868448
0.8727526221
1.278901144
0.03123262044
1.395624705
0.9226216174
0.07502798674
1.766030081
0.6504047126
0.06716827565
0.2098754014
0.07666699697
1.324000807
-0.2416054481
0.01602673962
0.8581354621
-0.598757379
0.00279996461
0.4217558056
-1.006335364
0.09262577537
0.05187602986
-1.118036873
0.1668519921
-0.308154868
-1.093445235
0.3231473745
-0.615999787
-0.8408782834
0.5020043971
-0.8541658859
-0.5666602324
0.7309340923
-1.02465211
-0.2824909593
0.7331416989
-1.11109447
-0.1097128643
0.5012679364
-1.124548897
0.02156135243
0.07195911265
-1.035985357
0.1983582956
-0.3122547873
-0.8424847156
0.4953761776
-0.4588214348
-0.5952274668
0.9273461386
-0.3692944092
-0.3508717882
1.300137155
-0.1545804161
-0.1221896018
1.538700282
-0.02394596663
0.2067898005
1.443211967
0.05667412961
0.7177449896
1.202599689
0.03178558815
1.230409697
0.8729808217
0.09779297871
1.568819692
0.643317732
0.1141825447
0.2070604979
0.1019227458
1.126002265
-0.2718851224
0.008097761119
0.6995752867
-0.6355963769
-0.01183969363
0.3493829733
-1.018356835
0.0660266554
0.07708564589
-1.102497767
0.1274591194
-0.2077935686
-1.104932499
0.2526165678
-0.4814579331
-0.8908689764
0.4143521945
-0.7283094948
-0.6561232077
0.6396652747
-0.9335399417
-0.3713033149
0.6687658691
-1.03923566
-0.1620373705
0.4701072893
-1.029842465
0.0316419982
0.07331123548
-0.8875455032
0.2632131333
-0.2899209504
-0.6515492305
0.5667335751
-0.4346238538
-0.4198406836
0.958990011
-0.3599240221
-0.257844744
1.259357197
-0.1763356903
-0.1477790379
1.450022622
-0.06454637888
0.0958744317
1.364287896
0.01452631532
0.5796419611
1.183683738
0.02001446208
1.079954683
0.8752860211
0.1100934398
1.378399103
0.6509354112
0.1507017678
0.2023358553
0.1236531086
0.9221192552
-0.3076268148
0.001252908216
0.5502734839
-0.6855082758
-0.02435441588
0.281840191
-1.038320473
0.0461078137
0.09257126868
-1.107476055
0.09640582465
-0.1266307198
-1.147176117
0.1941918511
-0.3633227577
-0.97453285
0.3332102962
-0.6038060956
-0.7795220018
0.5463764371
-0.8224319954
-0.4871426016
0.5894220543
-0.9360828466
-0.2214286033
0.4298615628
-0.9096408469
0.06211794949
0.08092338852
-0.7354824841
0.3672133574
-0.2418623356
-0.4803590473
0.6827286681
-0.3797489356
-0.274734011
1.024023776
-0.3274799734
-0.1852184258
1.241983118
-0.1851642169
-0.169359025
1.391308174
-0.1031211513
0.005725967683
1.333009148
-0.03227378409
0.4532825395
1.247695299
-0.003176916381
0.9307831009
0.954216065
0.1064763517
1.188404348
0.6923591957
0.1723527336
0.2049715342
0.1371338369
0.7111452348
-0.3325406994
-0.005811938132
0.4104092306
-0.7141628557
-0.0313750364
0.2192562157
-1.031026636
0.0280468115
0.09710153091
-1.094701639
0.06966230638
-0.06571658258
-1.177744603
0.1416575272
-0.2608735245
-1.049018232
0.2569957503
-0.4776736167
-0.89013706
0.4434116314
-0.6870952381
-0.5888471982
0.4938182246
-0.795664971
-0.2597448551
0.3721136543
-0.7568858909
0.1212340569
0.08964284545
-0.5748424334
0.5016644743
-0.1812936502
-0.3299041011
0.8272280705
-0.3040609634
-0.1613471376
1.108918045
-0.2745441543
-0.1295730689
1.241321257
-0.1760347067
-0.1767850933
1.36206753
-0.1285927448
-0.06649773302
1.352095252
-0.07185997159
0.3348373135
1.381502224
-0.02635505084
0.7650850847
1.101682418
0.08867490181
0.9817820818
0.7776282404
0.1716138842
0.2279328742
0.1362187914
0.4962874675
-0.3427401007
-0.007883551177
0.2783424806
-0.7085175757
-0.02985794286
0.1547782301
-0.9892562245
0.01779727405
0.08429595648
-1.049899935
0.05044415981
-0.02775304633
-1.170702509
0.1031523958
-0.1737405249
-1.082377868
0.189730319
-0.3458997528
-0.955957922
0.3375598858
-0.5161205067
-0.6443375634
0.3831004918
-0.6048408978
-0.2629561019
0.2988751344
-0.5692308863
0.1991241292
0.08673539131
-0.4114404378
0.6422558454
-0.1171493864