/*--------------------------------*- C++ -*----------------------------------*\
| =========                 |                                                 |
| \\      /  F ield         | OpenFOAM: The Open Source CFD Toolbox           |
|  \\    /   O peration     | Version:  5.x                                   |
|   \\  /    A nd           | Web:      www.OpenFOAM.org                      |
|    \\/     M anipulation  |                                                 |
\*---------------------------------------------------------------------------*/
FoamFile
{
    version     2.0;
    format      ascii;
    class       volScalarField;
    location    "0.4";
    object      T;
}
// * * * * * * * * * * * * * * * * * * * * * * * * * * * * * * * * * * * * * //

dimensions      [0 0 0 1 0 0 0];

internalField   nonuniform List<scalar> 
30538
(
273.2165537
272.9809491
272.9792511
272.9821964
272.9849968
272.9877325
272.9913599
272.9970141
273.0045241
273.0119159
273.0176361
273.0191251
273.0169475
273.0140485
273.0167059
273.0268245
273.0379843
273.039435
273.0288697
273.0387547
273.2206496
272.982859
272.9819303
272.985311
272.9884799
272.9915321
272.9952047
273.0002514
273.0065162
273.0122234
273.0164199
273.0170522
273.0147734
273.012284
273.0153158
273.0255645
273.0367357
273.0383689
273.0281558
273.0362989
273.2281226
272.9868361
272.987367
272.9916437
272.9954992
272.9990232
273.0026641
273.0065362
273.010497
273.0131281
273.0145673
273.013629
273.0110925
273.0092425
273.01284
273.0232089
273.0343817
273.0364576
273.0270914
273.0316165
273.2368759
272.9918531
272.9943637
272.999924
273.0046707
273.0086679
273.0120669
273.0142964
273.0152333
273.0139539
273.0118809
273.0089209
273.00593
273.0047015
273.0087764
273.0191008
273.03024
273.0330751
273.0251624
273.0248585
273.2445636
272.9969605
273.0016249
273.0086824
273.0144032
273.0187748
273.0216504
273.0219816
273.0196814
273.0143668
273.008658
273.0035341
272.9999419
272.999132
273.003396
273.0133944
273.0244206
273.0283006
273.0223995
273.0164982
273.248701
273.0010898
273.0076473
273.0161667
273.0228628
273.0274979
273.0296577
273.0281121
273.0229573
273.0142299
273.0054245
272.9983825
272.9941556
272.9934913
272.9976145
273.0070142
273.0177948
273.0228341
273.0191842
273.0079124
273.2474373
273.0034564
273.0112072
273.0207913
273.0282904
273.0330967
273.0345523
273.0315792
273.024483
273.0136122
273.0028264
272.9945212
272.9897802
272.9890106
272.9927267
273.0013828
273.011792
273.0178257
273.016156
273.0002119
273.2397502
273.0038036
273.011738
273.0216601
273.0295197
273.034294
273.0351921
273.0315416
273.0238519
273.0125757
273.0014256
272.9928466
272.9878228
272.9867178
272.9898593
272.9977898
273.0077753
273.0143669
273.0139875
272.9947993
273.2257755
273.0024533
273.009485
273.0187932
273.0263351
273.030683
273.0311293
273.0276601
273.0208837
273.0111997
273.0015719
272.993881
272.9888712
272.9871828
272.9895925
272.9968758
273.0064131
273.0129789
273.0129787
272.9924349
273.2061124
272.9999191
273.0052598
273.013064
273.019437
273.0227818
273.0227102
273.0200904
273.0156517
273.0095858
273.0033783
272.9976617
272.9929219
272.9903614
272.9918003
272.998419
273.0074594
273.013363
273.0128883
272.9929873
273.1822195
272.9967041
272.999863
273.0055979
273.0100133
273.0116867
273.0108541
273.0095139
273.0086445
273.0078888
273.0067192
273.00384
272.9995542
272.995855
272.9959732
273.0017541
273.0102114
273.0149534
273.0133315
272.9959586
273.1553599
272.9931747
272.9941874
272.9975574
272.9995283
272.9990236
272.9971693
272.9972784
273.0007231
273.0063514
273.0111775
273.0116534
273.0079037
273.0029555
273.0015895
273.0063204
273.0140628
273.0172258
273.0138631
273.0004067
273.1278627
272.9898019
272.9890476
272.9901171
272.9895604
272.9867275
272.983681
272.9851637
272.9930153
273.005113
273.0160292
273.01994
273.0167603
273.0106296
273.0079134
273.0115634
273.0184933
273.0197425
273.0142101
273.0057962
273.1009623
272.9872222
272.9851322
272.9842513
272.9814183
272.9765102
272.9723182
272.9749552
272.9866847
273.0042513
273.020376
273.0273447
273.0248002
273.017823
273.0141583
273.0169956
273.0231548
273.0223767
273.0142738
273.0104745
273.0770001
272.9860607
272.9831504
272.9807187
272.9761136
272.9697096
272.9647113
272.9681886
272.9826067
273.0038462
273.0233673
273.0325468
273.0306364
273.0234019
273.0195053
273.0219162
273.0274974
273.0248366
273.0141587
273.0150105
273.0563852
272.9866852
272.9835336
272.9801245
272.9744155
272.9673036
272.9619984
272.9657946
272.9811149
273.0036535
273.0242864
273.0345293
273.0331525
273.0264033
273.0230524
273.0254749
273.0305512
273.0263852
273.0138529
273.0174187
273.0406892
272.9889669
272.9860477
272.9822601
272.9762598
272.9693168
272.9642669
272.9679715
272.9823878
273.0034353
273.022787
273.0326867
273.0317677
273.0261202
273.0238035
273.0264473
273.0308425
273.0259268
273.0130767
273.0191121
273.0270379
272.9922334
272.98994
272.9865064
272.9811786
272.9752892
272.9711409
272.9742058
272.9858548
273.0029134
273.0187125
273.0269539
273.0264204
273.0222127
273.0209397
273.0235099
273.0270657
273.0224567
273.0111908
273.0163568
273.0167033
272.9956642
272.9942645
272.991868
272.9882033
272.9842382
272.98142
272.9833401
272.9908661
273.0019738
273.0122812
273.0177143
273.017498
273.014952
273.0144233
273.0163185
273.0186551
273.0154091
273.0076515
273.0124927
273.0210853
273.0309558
273.0614349
273.0687628
273.0829471
273.0756081
273.0792662
273.0811995
273.1009
273.1222064
273.1382719
273.1397422
273.1192467
273.0997864
273.0734419
273.0720138
273.0545835
273.0527995
273.017122
273.0169555
273.2642092
272.9858835
272.982913
272.9839108
272.9841552
272.9825764
272.9808902
272.9842641
272.9942702
273.0088211
273.0213804
273.0263718
273.0239869
273.0195703
273.0197456
273.0263927
273.0332897
273.0318904
273.021808
272.9858967
273.2668069
272.987021
272.9847175
272.9860609
272.986469
272.9850605
272.9833843
272.9863467
272.9955104
273.0088841
273.0203932
273.0247943
273.0223331
273.0180939
273.0184078
273.0250456
273.0319646
273.0308624
273.0212165
272.9838416
273.271393
272.9895227
272.988512
272.9905663
272.991346
272.9902205
272.9885007
272.9906706
272.9982532
273.0094332
273.0189967
273.0222831
273.0196412
273.0157042
273.0162076
273.0227937
273.0297761
273.0292637
273.020502
272.98022
273.2763711
272.9925673
272.9933314
272.9964615
272.997803
272.9969562
272.99507
272.9961427
273.0016462
273.0099732
273.0169963
273.0188027
273.0158473
273.0122156
273.0128728
273.01936
273.0264718
273.0267887
273.0192841
272.975142
273.2800197
272.9955998
272.998309
273.0027412
273.004777
273.0040977
273.0019243
273.00177
273.0050378
273.0103355
273.0146072
273.0147824
273.0114128
273.0080045
273.0087262
273.0149939
273.0222535
273.0235972
273.0176259
272.9692152
273.280781
272.9981541
273.0025472
273.0081953
273.0109477
273.0103461
273.0078545
273.0065843
273.0078454
273.0104215
273.0121729
273.0108359
273.007046
273.0037724
273.0044762
273.0104335
273.0178013
273.0201946
273.0157916
272.9634857
273.2775742
272.999904
273.0052872
273.011708
273.0149873
273.0144785
273.0118205
273.0098044
273.0096283
273.0102198
273.0100912
273.0076547
273.00356
273.0003778
273.0010174
273.0066342
273.0139919
273.0171732
273.0141146
272.9585899
273.2695697
273.0007461
273.0061699
273.012625
273.0160345
273.0156278
273.0130153
273.0107618
273.009956
273.0096866
273.0086917
273.0058085
273.0016293
272.9985159
272.9990672
273.0043385
273.011482
273.0150159
273.0128169
272.9554504
273.2566081
273.0007279
273.0052831
273.0109911
273.0139971
273.0135772
273.0111064
273.0090998
273.0085942
273.0087629
273.0081798
273.0056335
273.0016011
272.9984635
272.9988304
273.0037113
273.0104189
273.0137881
273.0118609
272.9543251
273.2388212
272.9999835
273.0030582
273.0074192
273.0095767
273.0088516
273.0064097
273.0049512
273.0056003
273.0075066
273.0086023
273.0071074
273.0033845
273.0000254
273.000007
273.004371
273.0104956
273.013271
273.011117
272.9554353
273.2169434
272.9986807
273.00001
273.0027562
273.0037859
273.0023275
272.9996176
272.9988279
273.0013155
273.0060824
273.0099246
273.0100551
273.0066924
273.0028466
273.0022586
273.0059729
273.0114407
273.0132766
273.0105157
272.958297
273.1915547
272.9968809
272.9966433
272.9977738
272.9976066
272.9951536
272.991843
272.9917263
272.9964217
273.0046916
273.0119174
273.0139795
273.0110017
273.0065491
273.0051592
273.0081348
273.0129258
273.0136151
273.0099824
272.9630356
273.1645241
272.9949053
272.9933719
272.9931352
272.9919206
272.9884641
272.9843519
272.984805
272.9917025
273.0035016
273.0141813
273.018176
273.015649
273.0106147
273.0084614
273.0106174
273.0146765
273.0141792
273.0093945
272.9689017
273.1368391
272.9932271
272.990667
272.9893742
272.987322
272.9830983
272.9782593
272.9791358
272.9878763
273.0025618
273.0160725
273.0217646
273.0197594
273.0144682
273.0119479
273.0133615
273.0165875
273.0148393
273.0087338
272.9751109
273.1106668
272.9922908
272.9889911
272.9868893
272.9842479
272.9795934
272.9744171
272.9755942
272.9854881
273.0018185
273.0169525
273.0238601
273.022456
273.0174655
273.0150557
273.0160028
273.0183902
273.0154154
273.007949
272.98152
273.0859232
272.9923446
272.9886617
272.9860257
272.9830713
272.9783963
272.9733363
272.9746755
272.9847093
273.0011064
273.016374
273.023799
273.0230618
273.018886
273.0171191
273.0178908
273.0195403
273.0155321
273.0070447
272.9867587
273.0643813
272.9933065
272.9896891
272.9868699
272.9838897
272.9795895
272.9750719
272.9763956
272.985567
273.0003971
273.0142729
273.0213989
273.0212671
273.018221
273.0173744
273.0182565
273.0191889
273.0146825
273.0060215
272.9921507
273.0441507
272.9949729
272.991931
272.9894119
272.9867665
272.9832363
272.9796128
272.9807461
272.9881335
272.9999236
273.0110021
273.0169168
273.0171532
273.0152404
273.0152062
273.0161518
273.0165804
273.0123084
273.0047048
272.995003
273.0267101
272.9969426
272.9949572
272.9932164
272.9913736
272.989021
272.9866796
272.9874296
272.9921811
272.9997498
273.0068732
273.0107657
273.0110671
273.0101046
273.0104597
273.0112237
273.0113594
273.0082717
273.0030323
272.9984771
273.0344905
273.0458434
273.0902576
273.0993239
273.1276756
273.1195473
273.1269082
273.1161613
273.1228713
273.1237124
273.1214605
273.1102689
273.0805527
273.0621734
273.029627
273.0313738
273.0047376
273.017069
272.9866911
273.0078663
273.3535554
272.9953077
272.9899477
272.9878118
272.9861989
272.980736
272.9731082
272.9732361
272.9842767
273.003234
273.0205329
273.027876
273.0262705
273.0209434
273.019363
273.0215913
273.0225318
273.018883
273.0111137
272.8897983
273.3538115
272.9954003
272.9906733
272.9889443
272.9873108
272.981612
272.9738245
272.9736983
272.9844383
273.0030286
273.0200035
273.0271493
273.0253805
273.019848
273.0179424
273.0199885
273.0211287
273.0179014
273.0106029
272.8883516
273.3542284
272.9959796
272.9924158
272.9914409
272.9897934
272.9837572
272.9757436
272.9751847
272.9853518
273.0031976
273.0195252
273.026299
273.0242431
273.0183487
273.0159224
273.0177347
273.019293
273.016771
273.0102451
272.8858324
273.3534266
272.9964934
272.9944443
272.9945169
272.9929349
272.9865596
272.9783607
272.9773044
272.986686
273.0034656
273.0188419
273.0250951
273.0226616
273.016404
273.0134965
273.0151728
273.0173025
273.0155771
273.0098735
272.8830669
273.3509359
272.9967898
272.9963792
272.9976203
272.9961245
272.9895462
272.9813154
272.9798093
272.9882936
273.003812
273.0180077
273.0236113
273.0207578
273.0142819
273.0110977
273.0127996
273.0156059
273.014572
273.0095773
272.8800717
273.3458546
272.9970555
272.9980611
273.0002261
272.9987019
272.9921092
272.9841493
272.9823866
272.9899777
273.0041619
273.0170625
273.02196
273.0187862
273.0123466
273.0091998
273.0111244
273.0145249
273.0139697
273.0094338
272.8780566
273.3387293
272.9976427
272.9994544
273.0019117
273.0001833
272.9937921
272.986432
272.9847059
272.99152
273.0043978
273.016041
273.020301
273.0170813
273.0109604
273.0081342
273.0103548
273.0140553
273.0137187
273.0093673
272.8770244
273.3286132
272.998668
273.0005563
273.0025542
273.0004405
272.9944137
272.9878709
272.9864341
272.9926681
273.0043855
273.0149214
273.0187613
273.0158115
273.010283
273.0078618
273.0101841
273.0137412
273.0133188
273.0090555
272.8773851
273.3155664
272.9999918
273.0012149
273.0022261
272.9997488
272.9940921
272.9883567
272.9873536
272.9932461
273.0040288
273.0137037
273.0173614
273.0148971
273.0101087
273.0080024
273.010073
273.0130972
273.0123659
273.0082842
272.879208
273.2988094
273.0011139
273.0013694
273.0011961
272.9984571
272.9932518
272.9881863
272.987637
272.9932748
273.0033273
273.0124103
273.0160237
273.0141397
273.0101407
273.0083888
273.0099686
273.0121616
273.0109148
273.0070443
272.882846
273.277894
273.0017251
273.0009385
272.9997291
272.9970064
272.992395
272.9877558
272.9875239
272.9928541
273.002359
273.0110563
273.0146832
273.0133556
273.0100877
273.0087887
273.0098228
273.011041
273.0093454
273.0056119
272.8884238
273.2532369
273.0018276
272.9999653
272.9980457
272.995789
272.991908
272.987542
272.9873831
272.9922937
273.0013483
273.0096969
273.0133354
273.0124746
273.0098833
273.0091951
273.0098114
273.0100852
273.0080442
273.0044019
272.8963533
273.2252946
273.0016139
272.9986954
272.996342
272.9948785
272.9918622
272.9878152
272.9875506
272.9919259
273.0004191
273.0083849
273.0120233
273.0116137
273.009794
273.009715
273.0098442
273.009166
273.0068928
273.0035418
272.9067961
273.1955541
273.0011865
272.997286
272.9946917
272.9941125
272.9920319
272.9884022
272.9880563
272.9918499
272.9995573
273.006965
273.0105959
273.0107718
273.0099311
273.010425
273.0099421
273.0082206
273.0056666
273.0028919
272.9179608
273.164574
273.0006591
272.9958565
272.9931054
272.9933122
272.9921673
272.9890481
272.9887456
272.9919783
272.9986531
273.0052144
273.0087981
273.0097608
273.0100494
273.0112302
273.0099805
273.0069867
273.0041478
273.0020546
272.9306073
273.1332294
272.9999832
272.9945011
272.9917349
272.9925051
272.9921407
272.9896511
272.9895178
272.9922155
272.9976902
273.0031905
273.0066206
273.0083782
273.0098158
273.0116549
273.0098403
273.005611
273.0024384
273.0009108
272.9418226
273.1021369
272.999216
272.9935492
272.9909428
272.9920245
272.9922202
272.9904701
272.9905704
272.9927076
272.9968012
273.0011336
273.0042736
273.0066076
273.0089409
273.011234
273.0092267
273.0042519
273.0008746
272.9996878
272.9546875
273.0716585
272.9987067
272.9936837
272.9914661
272.9925273
272.9929884
272.991974
272.9921797
272.9937634
272.9966233
272.9996796
273.0022107
273.0045946
273.0072167
273.0095157
273.0077202
273.0029789
272.9998447
272.998938
272.9659945
273.0426858
272.9987465
272.9952634
272.9937655
272.9945795
272.9950435
272.994589
272.9947894
272.9957469
272.9973723
272.9991552
273.0008013
273.0025991
273.004668
273.0064483
273.0052281
273.0017895
272.9994735
272.9988678
272.9802309
273.0516057
273.0745799
273.1307891
273.1514564
273.1915121
273.1932315
273.1984262
273.1775814
273.1583036
273.1287844
273.0956714
273.0628214
273.0241712
273.0013286
272.9683365
272.9625744
272.9345604
272.9566746
272.9495283
272.9901773
273.5193111
273.0071792
273.0008526
272.9960278
272.9936325
272.9879192
272.9792467
272.9775053
272.9836058
272.9968676
273.009351
273.0150151
273.0152449
273.0131502
273.0128393
273.0113828
273.007162
273.0039141
273.0022715
272.7369986
273.5178438
273.0063536
273.0007465
272.9965806
272.9941613
272.9879155
272.9786533
272.9766012
272.9828381
272.9965167
273.0094305
273.0151735
273.0150482
273.0122928
273.0113265
273.0096848
273.0059334
273.0031171
273.001721
272.7348432
273.5152659
273.005247
273.0008509
272.9977618
272.9953555
272.9883051
272.9781554
272.9755858
272.982065
272.9964805
273.0101303
273.0160196
273.0152808
273.0114585
273.0095437
273.0077833
273.0049133
273.0026954
273.0015007
272.7314435
273.5103208
273.0035904
273.0004866
272.9986765
272.9963378
272.9885552
272.9775991
272.9745223
272.9813058
272.9965958
273.0110841
273.0171722
273.0157467
273.0107711
273.0080395
273.0065371
273.0048023
273.0030001
273.0015435
272.7277828
273.5035259
273.0017243
272.9996386
272.998891
272.9965931
272.9883567
272.9770748
272.9737575
272.9808561
272.9968911
273.0121419
273.0184613
273.0164722
273.0105697
273.0073671
273.0065743
273.006114
273.0042878
273.0019364
272.7244134
273.4939431
273.0002403
272.9988012
272.9985064
272.99598
272.9876275
272.9767158
272.9735512
272.9808805
272.9973299
273.0130695
273.0196325
273.017336
273.0109877
273.0077872
273.0080168
273.008633
273.0063016
273.0026038
272.7225807
273.4823783
272.9997371
272.9985942
272.9980126
272.9948675
272.9866361
272.9766961
272.9739901
272.9813975
272.99777
273.0135658
273.0203668
273.0181184
273.0118558
273.0089115
273.0099869
273.011158
273.0081006
273.0032393
272.7228896
273.467838
273.0003493
272.9991637
272.9978539
272.9939301
272.985935
272.9771609
272.9751052
272.9823818
272.9980823
273.0133513
273.0202751
273.0184507
273.0126436
273.0099216
273.0112436
273.0123203
273.0087679
273.0033675
272.7260513
273.4503418
273.0017222
273.0003103
272.9980096
272.9933808
272.9858875
272.9783514
272.9769954
272.9838214
272.9981418
273.0122068
273.0189895
273.017908
273.0129664
273.0105785
273.0114668
273.011775
273.0079745
273.002802
272.7323412
273.4281541
273.0032019
273.0014144
272.9982368
272.9933937
272.9867669
272.9805462
272.9798328
272.9857939
272.9979431
273.0100504
273.0163401
273.0162228
273.0126293
273.0108014
273.0108424
273.0098787
273.0060457
273.0016702
272.7427662
273.4009667
273.004279
273.0019592
272.9983009
272.993959
272.9887192
272.9839222
272.9836675
272.9882777
272.9975467
273.0069207
273.0123701
273.0132645
273.0115464
273.0108412
273.0101444
273.0077919
273.0039886
273.0004896
272.7565476
273.3689432
273.0050141
273.00191
272.9980155
272.9947462
272.9914975
272.988338
272.9883669
272.9912031
272.9970848
273.0031916
273.007454
273.0093835
273.009938
273.0110119
273.0098517
273.0061421
273.0023628
272.999901
272.7757525
273.3327179
273.0056641
273.0014255
272.9974328
272.9956865
272.9946423
272.9931828
272.9934418
272.9943519
272.9966243
272.9993155
273.002181
273.0051571
273.0081253
273.0112829
273.009734
273.0047228
273.0011442
273.0000303
272.7978464
273.2931821
273.0061568
273.0006065
272.9964851
272.9962882
272.9973573
272.9976414
272.9981925
272.9972796
272.9961387
272.9956117
272.9971847
273.0012513
273.0066121
273.0114577
273.0092757
273.0027147
272.9996367
273.0005022
272.8239616
273.2507359
273.0061603
272.9993504
272.9952185
272.9962129
272.9988366
273.0008098
273.0017196
272.9994668
272.9955841
272.9924289
272.9931133
272.9981729
273.0055898
273.0113665
273.0081435
272.9997836
272.9973651
273.0006561
272.8506816
273.2061955
273.0052191
272.9975977
272.9936432
272.9954878
272.9990558
273.0023168
273.0036479
273.0007046
272.995123
272.9903168
272.9904674
272.9962769
273.0048783
273.0108178
273.0064555
272.9965172
272.9946387
273.000158
272.8776582
273.1599093
273.0034679
272.9956957
272.9921629
272.9944887
272.9984512
273.0024167
273.0040889
273.0010684
272.9949218
272.9895347
272.9894583
272.9955011
273.0041961
273.0096674
273.0046447
272.9941084
272.992581
272.9992399
272.9045856
273.1136345
273.001585
272.9946584
272.9918253
272.994167
272.9978806
273.0017461
273.0034412
273.0008879
272.9953761
272.9905068
272.9903734
272.9957558
273.0033231
273.0076953
273.0030225
272.9935743
272.9923412
272.9985487
272.9306622
273.0676534
273.0003367
272.9954946
272.9936413
272.9955036
272.9982623
273.0011339
273.0023217
273.0005699
272.9967307
272.9933243
272.9931904
272.9969229
273.0020791
273.0049001
273.0015771
272.9949664
272.9941194
272.998546
272.9586921
273.0896833
273.1099761
273.2127711
273.2293941
273.3088677
273.2990655
273.32448
273.2741841
273.2329397
273.1543305
273.078275
273.0134247
272.9449948
272.921668
272.8605828
272.8715876
272.8172361
272.8898547
272.8859423
272.9860846
273.7217323
273.0186476
273.0155848
273.0111193
273.0084973
273.004365
272.9988543
272.9957098
272.9933977
272.9927205
272.9921023
272.9924156
272.9939916
272.9966822
272.9990777
272.9961686
272.9904192
272.9905487
272.9957521
272.5471385
273.7193406
273.0172381
273.0148654
273.011192
273.0088517
273.0041535
272.9977684
272.9941391
272.9921222
272.9923721
272.9926173
272.99311
272.9942109
272.996075
272.9978789
272.9950624
272.9898793
272.9902584
272.9952904
272.5442022
273.7159161
273.0151162
273.0137175
273.0112369
273.0093616
273.0039112
272.9962298
272.9918937
272.990451
272.9923175
272.994112
272.9949886
272.9953569
272.995935
272.9969467
272.9945085
272.9903051
272.9908378
272.9953514
272.5376633
273.7089711
273.0122884
273.0114958
273.010176
273.0088852
273.0028786
272.9941476
272.9891941
272.9885134
272.9923493
272.9961099
272.9976145
272.9972969
272.99649
272.996898
272.9953598
272.9922985
272.9924862
272.9957034
272.5318714
273.7006175
273.0093846
273.0083697
273.0076087
273.0067527
273.0008028
272.9917624
272.9865587
272.9867075
272.9924749
272.9983321
273.0007196
273.0000188
272.9981578
272.9983482
272.9981226
272.9961366
272.9952647
272.9963128
272.524547
273.687897
273.0069555
273.0052169
273.0041583
273.0033063
272.9978997
272.9893481
272.9843064
272.9852642
272.9926757
273.0004702
273.0039195
273.0032599
273.0008204
273.0010079
273.0021342
273.0009327
272.9984985
272.996922
272.5213085
273.6728675
273.0055003
273.0030096
273.0010932
272.9997278
272.9948873
272.9871552
272.9825983
272.9843222
272.9929411
273.0022497
273.0067558
273.0064888
273.0037494
273.0037501
273.0057854
273.0049948
273.0011118
272.997435
272.5205738
273.6525954
273.005005
273.0020699
272.9992301
272.9970435
272.9924785
272.9855808
272.9817095
272.984034
272.9932939
273.0033575
273.0086191
273.0089763
273.0061199
273.0057979
273.0077802
273.0069423
273.0023311
272.9976554
272.5259692
273.6272475
273.0050895
273.0021888
272.9986786
272.995543
272.9910412
272.9850756
272.9820511
272.9846785
272.9936368
273.0035859
273.0091826
273.0102
273.0076883
273.0070338
273.0080587
273.0066616
273.0021394
272.9977109
272.5384362
273.595293
273.0052121
273.0024889
272.9986802
272.9950348
272.9908485
272.9860038
272.9840004
272.9864727
272.993923
273.002488
273.0079523
273.0098424
273.0083861
273.0078196
273.007571
273.005044
273.0009996
272.9976654
272.5575068
273.5557385
273.0050366
273.0022421
272.9983469
272.9949416
272.9918666
272.9887193
272.987757
272.9894199
272.9941331
272.9999251
273.0046906
273.0077304
273.0084107
273.0089233
273.0076473
273.0036784
272.9999409
272.9978129
272.5851241
273.5111848
273.0049761
273.0014414
272.9973408
272.9946582
272.9934771
272.9927839
272.9929439
272.9932374
272.9942055
272.9961056
272.9995655
273.004182
273.0079911
273.0106454
273.0086894
273.0030831
272.9993915
272.9984146
272.6181478
273.4598956
273.0052891
273.0005423
272.9960162
272.9941685
272.9951103
272.9973533
272.9987322
272.9973587
272.9941191
272.9917845
272.993686
272.9999278
273.0072905
273.0125416
273.010219
273.0028558
272.999125
272.999299
272.6587465
273.4063268
273.0058595
272.999838
272.9947809
272.9935085
272.9961469
273.0013117
273.0039481
273.0010191
272.9939154
272.9877527
272.9882849
272.9960825
273.0065936
273.0137892
273.0108665
273.0015719
272.9982267
273.0003231
272.7017909
273.3467456
273.0061824
272.9993001
272.9939133
272.992829
272.9964689
273.0038537
273.0076069
273.0036596
272.9937964
272.9849097
272.9845357
272.9935674
273.0060102
273.0138554
273.0097695
272.9988043
272.9962177
273.001113
272.7499978
273.2870067
273.0055775
272.9985213
272.99325
272.9922502
272.9962745
273.0047841
273.0093453
273.0050696
272.9939981
272.9840245
272.9832509
272.9927295
273.0055208
273.0126649
273.0070855
272.9949828
272.993405
273.0014042
272.7957327
273.2222436
273.004161
272.9975877
272.9928678
272.992043
272.9960131
273.004594
273.0093808
273.00538
272.9947667
272.9851862
272.9843775
272.9933901
273.0049674
273.0104916
273.0039234
272.9918676
272.9912295
273.0011152
272.8440883
273.159663
273.0024749
272.9970084
272.9932967
272.9927452
272.9961973
273.0036452
273.0079284
273.0046979
272.9959812
272.9880964
272.9874775
272.9949928
273.0041334
273.0076999
273.0014305
272.9910523
272.9910138
273.0005563
272.8877786
273.094812
273.0012093
272.9975352
272.9951943
272.9950785
272.9975629
273.0027563
273.0055961
273.0033778
272.9975511
272.9923257
272.991921
272.9969224
273.0026871
273.0044552
272.9999019
272.9928333
272.9930454
273.0000522
272.9343085
273.1192252
273.1651194
273.3003383
273.3435066
273.4310862
273.4336549
273.4455043
273.3835706
273.3048801
273.1908448
273.0730166
272.9720847
272.8796324
272.8271943
272.754219
272.7470124
272.7074528
272.797629
272.8333013
272.9599351
274.0257177
273.0283883
273.0325569
273.0324574
273.0290219
273.0259334
273.0226162
273.0168423
273.0058016
272.9911782
272.9775471
272.9709499
272.9715585
272.9762368
272.9798725
272.9778756
272.9753108
272.9796797
272.9894698
272.2529484
274.0248837
273.0265477
273.0310626
273.0316123
273.0288429
273.0256723
273.0216618
273.0154904
273.0046151
272.9907862
272.9779136
272.9715439
272.9719098
272.9762658
272.9798896
272.9782775
272.9761263
272.9802634
272.9892767
272.2448072
274.0250328
273.0238466
273.0285366
273.0299449
273.0283117
273.0252316
273.0202371
273.01356
273.0030778
272.9906362
272.9791397
272.9732826
272.9734027
272.9773608
272.9811421
272.9803037
272.978666
272.9821834
272.9899223
272.2290521
274.022389
273.0206504
273.0246166
273.0264567
273.0261034
273.0235329
273.0180056
273.0110393
273.0012265
272.9905304
272.9808405
272.975835
272.9759483
272.9796818
272.9838294
272.9841667
272.9828091
272.9851196
272.9908819
272.2108403
274.0190688
273.0175779
273.0197943
273.0210595
273.0216738
273.0202312
273.0147993
273.0080493
272.9992416
272.9905244
272.9830429
272.9792862
272.9797742
272.9835829
272.9882113
272.9895436
272.9880126
272.9885467
272.9920135
272.190602
274.0090672
273.0150508
273.01481
273.0148356
273.0158685
273.0156968
273.0108437
273.0046869
272.9972019
272.9906967
272.9857332
272.9835732
272.9846502
272.9884924
272.9932422
272.9951417
272.9933358
272.9918252
272.9930804
272.1769207
273.9936017
273.0131266
273.0106899
273.0093363
273.0102654
273.0109722
273.0065441
273.0011202
272.9952242
272.9910597
272.9887956
272.9883278
272.9898657
272.9933141
272.9975801
272.9994383
272.9974384
272.9944221
272.9939571
272.1689293
273.9672503
273.0113371
273.0077986
273.0055252
273.0059247
273.0067382
273.0025642
272.9979024
272.9936535
272.991993
272.992214
272.9931395
272.9945346
272.9972798
273.0005513
273.0017791
272.999738
272.9962516
272.9948905
272.1751636
273.9306677
273.0094161
273.0059409
273.0034291
273.0030605
273.0032789
272.9993717
272.9956328
272.9928565
272.9927725
272.9944559
272.9962979
272.9979997
273.0001468
273.0022817
273.0025702
273.0004807
272.9973992
272.9960401
272.1939969
273.8813295
273.007223
273.0043271
273.0019888
273.0009863
273.0005922
272.9973874
272.994788
272.9931312
272.9934027
272.9954169
272.9976565
272.9999971
273.002249
273.0037826
273.0029793
273.0004857
272.9980759
272.9973238
272.2293422
273.8208494
273.0051441
273.0023772
273.0000145
272.9986728
272.9983627
272.9968406
272.9957498
272.9946408
272.9939733
272.9946552
272.996872
273.0004841
273.0041443
273.0060887
273.00443
273.0009854
272.9986728
272.998465
272.2764665
273.7510025
273.0036279
273.0002812
272.9974232
272.9956785
272.9961336
272.9973041
272.9981097
272.9970034
272.9942471
272.9925237
272.994346
272.9997567
273.0059194
273.0091633
273.0068752
273.0018154
272.9990554
272.9991479
272.3390347
273.6725652
273.0028523
272.9987243
272.9949141
272.992651
272.993958
272.9981944
273.000979
272.9995064
272.9941214
272.989566
272.9907709
272.9982033
273.0073616
273.0122927
273.0095814
273.0025348
272.9991393
272.9993538
272.4072508
273.5894191
273.0026887
272.9981405
272.9933608
272.9901375
272.9920101
272.9989144
273.0034168
273.0014971
272.993868
272.9868757
272.9874855
272.996613
273.0081857
273.0141605
273.0109047
273.0020983
272.9982892
272.9993341
272.4874973
273.4998962
273.0027088
272.9986688
272.9933993
272.9888033
272.9905764
272.9991294
273.0047727
273.0026261
272.9937252
272.9854351
272.9858855
272.9958986
273.0082175
273.0138687
273.0097834
273.0002022
272.9965751
272.9991933
272.5664033
273.4106694
273.002412
272.9998103
272.9947358
272.9888631
272.990048
272.9989246
273.0050239
273.0029301
272.9939892
272.9858686
272.9864393
272.9962997
273.0074678
273.0114448
273.0064466
272.9969171
272.9942849
272.9989626
272.6503709
273.3170515
273.0019162
273.0008229
272.9965403
272.9902927
272.9907684
272.9988365
273.0044659
273.0026495
272.9947995
272.9880288
272.9888665
272.9975524
273.0062661
273.007982
273.0023521
272.993893
272.992518
272.9987295
272.7299657
273.2270885
273.0014203
273.0013307
272.9981652
272.99268
272.9926381
272.9989477
273.0034526
273.0020466
272.9960742
272.9912362
272.9922603
272.9989642
273.0047517
273.0046897
272.9992543
272.9925507
272.9922163
272.9986458
272.8094057
273.1352367
273.001071
273.0015852
272.9997365
272.996341
272.9960575
273.0000722
273.0026822
273.0016025
272.9977183
272.9948681
272.9956731
272.9998444
273.0029105
273.0019819
272.9979061
272.9935805
272.9937385
272.9988581
272.886077
273.1877496
273.2232743
273.4716851
273.5044791
273.6698881
273.6283064
273.6711524
273.5396621
273.4368586
273.2553638
273.0850019
272.9320021
272.7663939
272.6906688
272.5393003
272.5768657
272.4947665
272.6925451
272.7030678
272.9517979
274.3644325
273.0371663
273.0484929
273.0536714
273.0513761
273.0470172
273.0412501
273.0304581
273.0129407
272.9908967
272.9706161
272.9581809
272.9546369
272.9572192
272.9603572
272.9604872
272.962147
272.9695579
272.9817518
271.8881528
274.3669505
273.0349386
273.0459712
273.0514722
273.0499811
273.0461191
273.0403229
273.029505
273.0121483
272.990489
272.9707262
272.9587478
272.9556069
272.958539
272.962202
272.9629165
272.9644816
272.9711311
272.9818424
271.8734078
274.3762315
273.0317536
273.0417958
273.0474643
273.0472668
273.0444046
273.0388915
273.0282154
273.011179
272.9901625
272.9712722
272.9602497