/*--------------------------------*- C++ -*----------------------------------*\
| =========                 |                                                 |
| \\      /  F ield         | OpenFOAM: The Open Source CFD Toolbox           |
|  \\    /   O peration     | Version:  5.x                                   |
|   \\  /    A nd           | Web:      www.OpenFOAM.org                      |
|    \\/     M anipulation  |                                                 |
\*---------------------------------------------------------------------------*/
FoamFile
{
    version     2.0;
    format      ascii;
    class       volVectorField;
    location    "0.4";
    object      U;
}
// * * * * * * * * * * * * * * * * * * * * * * * * * * * * * * * * * * * * * //

dimensions      [0 1 -1 0 0 0 0];

internalField   nonuniform List<vector> 
30538
(
(0.2297750154 -0.001958660922 0.002693638216)
(0.1958972856 -0.004869899454 0.000689588694)
(0.1377137327 -0.006948623425 0.0004946964942)
(0.05652880092 -0.008093878031 -0.0004902187025)
(-0.03152242855 -0.008751541808 0.005620617957)
(-0.1088942079 -0.008375658779 0.0125598236)
(-0.1443609519 -0.007090113429 0.01999028393)
(-0.1490731689 -0.005132032855 0.01851245763)
(-0.1371471823 -0.002859712887 0.01063908646)
(-0.1389587694 -0.0004678112271 -0.003797874683)
(-0.1569577258 0.002122013314 -0.01517754762)
(-0.1761214271 0.00468143715 -0.01819927221)
(-0.1653183043 0.006895333754 -0.01315595434)
(-0.11490236 0.008266654129 -0.002931832148)
(-0.03265739277 0.00859247741 0.002344483716)
(0.04839221354 0.008195671261 0.003225038843)
(0.1130891993 0.007457094084 -0.001775274514)
(0.1589834199 0.006179151336 -0.001227092937)
(0.1953747241 0.004336400263 -0.00134220994)
(0.2225165586 0.00168602888 0.001342647668)
(0.2249777594 -0.005801537165 0.002647270488)
(0.1923801104 -0.01446610272 0.0007354257042)
(0.1354306169 -0.02067885431 0.0006974749496)
(0.05524419796 -0.02409685795 -0.0001587067602)
(-0.03172904994 -0.02584475559 0.005983267534)
(-0.1077205817 -0.02466226446 0.0126861544)
(-0.1420704756 -0.02075622712 0.01984609652)
(-0.1460972631 -0.0149494199 0.01825240882)
(-0.1338794928 -0.008250766175 0.01050133916)
(-0.1354750337 -0.001276817875 -0.003564523632)
(-0.1533442232 0.006210697121 -0.01467720664)
(-0.1727544747 0.01362402459 -0.01769292264)
(-0.1627725529 0.02008937567 -0.01294313233)
(-0.1136811223 0.02419546491 -0.003096161622)
(-0.03268736724 0.02528691082 0.001965916416)
(0.04760114812 0.0242466258 0.002856985286)
(0.1116705513 0.0220065503 -0.002088755359)
(0.1567795486 0.01820846459 -0.001532542313)
(0.1921934982 0.01268970867 -0.001691123494)
(0.2182376497 0.004924594515 0.001158337095)
(0.2155223032 -0.009383244982 0.002599038045)
(0.1854163391 -0.02348444185 0.0009056402566)
(0.1309100859 -0.0337593727 0.001144296693)
(0.05285653972 -0.03937607704 0.0004762441795)
(-0.03195537657 -0.04190238854 0.006581779359)
(-0.1053290922 -0.03973119659 0.01291831412)
(-0.1375255169 -0.03321894982 0.01958551492)
(-0.1402644055 -0.0236959576 0.01779118644)
(-0.1275184563 -0.01286611538 0.01025851802)
(-0.1287816466 -0.00170004128 -0.003137582019)
(-0.146465947 0.01008271403 -0.01373770828)
(-0.1663396936 0.02168463323 -0.01672315069)
(-0.1578575305 0.03189674217 -0.01246301694)
(-0.1112181885 0.038566448 -0.003282717235)
(-0.03259680892 0.04064108763 0.001426787314)
(0.04610096511 0.03917839459 0.002331209796)
(0.1088406893 0.03550788994 -0.002464674716)
(0.152400796 0.02920342896 -0.001957783836)
(0.1859734193 0.02018837557 -0.002249298059)
(0.2100210384 0.007756923677 0.0008306306815)
(0.2018602259 -0.01229107408 0.002622177554)
(0.1752083991 -0.03108874452 0.001299567739)
(0.1242110718 -0.04524537059 0.001895041104)
(0.04946147713 -0.05310693404 0.001388722517)
(-0.03202983271 -0.05627945228 0.007373138547)
(-0.1016308727 -0.05297251344 0.01327698373)
(-0.1307798984 -0.0438960723 0.01938688916)
(-0.1317513982 -0.03091869094 0.0173191714)
(-0.1183747363 -0.01640374173 0.01005713724)
(-0.1193088916 -0.00165131578 -0.002508802591)
(-0.1368680752 0.01358848298 -0.0124549593)
(-0.1573754719 0.02850900504 -0.01536022931)
(-0.1508632584 0.04180611686 -0.01171043377)
(-0.1074955538 0.05080293073 -0.003314534762)
(-0.0322295294 0.05402760282 0.0009379463093)
(0.04400363114 0.05238691438 0.001934100567)
(0.1046392067 0.04735995586 -0.002718350502)
(0.1459458547 0.03868760825 -0.002298887666)
(0.1770066016 0.02643999375 -0.002868540199)
(0.1984064058 0.01006458933 0.000423293232)
(0.1850072431 -0.01409972875 0.002731557972)
(0.1622025992 -0.03637113502 0.001929164878)
(0.1153742948 -0.05411236994 0.002927173164)
(0.04503283177 -0.06420873799 0.002576141712)
(-0.03191553988 -0.06813626691 0.008324221711)
(-0.09663023849 -0.06363270981 0.01379694522)
(-0.1219859056 -0.05220062166 0.01930426372)
(-0.1208763613 -0.03621820627 0.01693749614)
(-0.106878125 -0.01870304977 0.009911465863)
(-0.107641825 -0.001194865535 -0.001826119271)
(-0.125207709 0.01652459974 -0.01103758509)
(-0.1464401254 0.03387823557 -0.01383310643)
(-0.142128751 0.04956560374 -0.01077079259)
(-0.1025800194 0.06058946691 -0.003170514365)
(-0.03145593929 0.06500168845 0.0006753305136)
(0.04141532062 0.06329378163 0.001808063975)
(0.09917010709 0.05695792926 -0.002682140951)
(0.137595274 0.0461688405 -0.002475478133)
(0.1656950167 0.03115152591 -0.003428339629)
(0.1841065039 0.01171907336 -2.610753921e-05)
(0.1663553239 -0.01452602051 0.002949484115)
(0.1470244468 -0.03881736195 0.002771922398)
(0.1045804955 -0.05948834313 0.004300053096)
(0.03953529907 -0.07173434357 0.004086286057)
(-0.0316735679 -0.07649089435 0.009607007249)
(-0.09042002573 -0.07080552844 0.0145814187)
(-0.1114501118 -0.05737861041 0.01952058982)
(-0.1081184805 -0.03910383247 0.01680422519)
(-0.09366534369 -0.0196197295 0.009908193684)
(-0.09446696013 -0.0005024020449 -0.001135955511)
(-0.1121405886 0.0185848323 -0.009705479647)
(-0.1340694595 0.03744987877 -0.01238938518)
(-0.1320162553 0.05486731146 -0.009890969076)
(-0.09659120806 0.06754286534 -0.003014901254)
(-0.03030446399 0.07309053941 0.0004815442261)
(0.0383365302 0.07122609332 0.001815618239)
(0.09253561917 0.06359719479 -0.002531425721)
(0.1276702186 0.05100749722 -0.002611268482)
(0.1525912006 0.0339139809 -0.003948642)
(0.1679634606 0.01255612751 -0.0004809229848)
(0.1474824537 -0.01361388159 0.003218503444)
(0.1305347561 -0.03831190392 0.003765904034)
(0.09217514927 -0.06087746753 0.005917669518)
(0.03301848691 -0.07488614221 0.005945555242)
(-0.03129685405 -0.08032668792 0.01122787075)
(-0.08316768867 -0.07365191874 0.01566404087)
(-0.09962281793 -0.05896381653 0.0199940514)
(-0.09422929448 -0.03956490337 0.01687995389)
(-0.07963396915 -0.0195127451 0.009971958555)
(-0.08069079378 -2.786210795e-05 -0.0006185220967)
(-0.09844494793 0.01939200132 -0.008685360577)
(-0.1208435673 0.03888761151 -0.01132738105)
(-0.1208947444 0.05731079969 -0.009279237348)
(-0.08971321673 0.07115429325 -0.003058410955)
(-0.02884889657 0.07763903232 0.0001642148073)
(0.03471195577 0.07542268072 0.001664871402)
(0.08486643744 0.06654890775 -0.002502626887)
(0.11656255 0.05243677942 -0.002874615473)
(0.138437425 0.03420903007 -0.004456310236)
(0.1510995898 0.01232498463 -0.000898477381)
(0.1298314072 -0.01183074121 0.003429313133)
(0.1137372029 -0.03536182216 0.004680131736)
(0.07881890943 -0.05842694869 0.007566575274)
(0.02581090358 -0.07334425109 0.007994370706)
(-0.03082243354 -0.07910310896 0.01312581275)
(-0.07535834214 -0.07177321535 0.01702643825)
(-0.08739629597 -0.05694483979 0.02078505918)
(-0.08027152094 -0.03792769318 0.01726875436)
(-0.06575340717 -0.01880644912 0.01022983778)
(-0.06701607083 -7.203007456e-05 -0.0001746539217)
(-0.08469223884 0.01884361891 -0.008087998417)
(-0.1073153796 0.03811214895 -0.01077417318)
(-0.1092485989 0.05681331537 -0.00909329789)
(-0.08224454432 0.07125781342 -0.003380499166)
(-0.02729474549 0.0784135339 -0.0004413321378)
(0.03049191091 0.07560893386 0.001160573595)
(0.07626291241 0.06558877735 -0.002815411282)
(0.104745956 0.05015173562 -0.003278655611)
(0.1241536742 0.03182707581 -0.004887618126)
(0.1349045011 0.01090261775 -0.001191557528)
(0.1142939189 -0.009776561144 0.003475190695)
(0.09771855893 -0.03098088394 0.00523598086)
(0.06543487223 -0.05295139554 0.008845983324)
(0.01844423909 -0.06752852109 0.009839354374)
(-0.03019106627 -0.07291522384 0.01498421063)
(-0.0675352284 -0.0653946534 0.01847824314)
(-0.07573533824 -0.05153860577 0.02180704168)
(-0.06730680805 -0.03432672807 0.01799736311)
(-0.05290761805 -0.01726315894 0.01075052397)
(-0.05412205428 -0.0003648779302 0.0001350041517)
(-0.07150492165 0.01723756848 -0.007962121362)
(-0.09405148368 0.03546063353 -0.01084971874)
(-0.09750783835 0.05380420029 -0.009377240573)
(-0.07447534126 0.06833684181 -0.004004358878)
(-0.02579176256 0.07580118973 -0.001263846683)
(0.02562902896 0.07234369456 0.0003529690241)
(0.06683486794 0.06137961413 -0.003373964588)
(0.09262456677 0.04505967333 -0.00364189612)
(0.1106102308 0.02744523854 -0.005039560139)
(0.1207393835 0.008672816284 -0.001246457371)
(0.1011749846 -0.008021706558 0.003325794288)
(0.08333291719 -0.02626730279 0.005311704585)
(0.05309891499 -0.04589941517 0.009470912018)
(0.01175165394 -0.05879277414 0.0110473574)
(-0.02930694233 -0.06301378151 0.01635907824)
(-0.0602714366 -0.05552719448 0.01971817849)
(-0.06546884231 -0.04343332717 0.02290550786)
(-0.05607862759 -0.02893353259 0.01904058619)
(-0.04177978195 -0.0147462601 0.01151698332)
(-0.04266868361 -0.0004972441573 0.0004293918249)
(-0.05941112917 0.01505537473 -0.008256215834)
(-0.08151157882 0.03167037728 -0.01142251816)
(-0.08605285939 0.04921223137 -0.01005594181)
(-0.06673265818 0.06353005464 -0.004761953978)
(-0.0244903903 0.07112992634 -0.002047209187)
(0.02026960773 0.06711481073 -0.000371366428)
(0.05693062836 0.05548788937 -0.003778161257)
(0.08068228393 0.03887956048 -0.003622075393)
(0.09835535506 0.0224254391 -0.004659048855)
(0.1092404814 0.006269683869 -0.0009836768872)
(0.09019020717 -0.006871395201 0.003022664733)
(0.07104776743 -0.02200628117 0.004884789573)
(0.04255433041 -0.03853751287 0.009258455612)
(0.006402152116 -0.04881539447 0.01126778987)
(-0.02787050619 -0.05106185157 0.01684821763)
(-0.05371360508 -0.04363825145 0.02037854691)
(-0.05696856922 -0.03348429371 0.02383392085)
(-0.04706480251 -0.02212654004 0.02021586888)
(-0.03284112552 -0.01129127237 0.0124440431)
(-0.0330921736 -0.000297516736 0.0006113419532)
(-0.04880297972 0.01265349097 -0.008899983557)
(-0.06994712506 0.02730903896 -0.0124850784)
(-0.07503080983 0.04381764451 -0.01103900996)
(-0.05902441552 0.05775301361 -0.005581662577)
(-0.02329286931 0.06552794609 -0.002652438508)
(0.01453644983 0.06130690562 -0.0008088743967)
(0.04682491046 0.04936182414 -0.003809498115)
(0.06917865246 0.03313034783 -0.003136329586)
(0.08749052402 0.01799856833 -0.003717694168)
(0.1003494366 0.004309289723 -0.0004125480895)
(0.08087622914 -0.006256186253 0.00266613632)
(0.06103965859 -0.01855478126 0.004122023849)
(0.03424753689 -0.03211632042 0.008252567125)
(0.002949201117 -0.03924078098 0.01040385185)
(-0.02563460858 -0.03930232671 0.01611010284)
(-0.04786238009 -0.03180917931 0.02008750344)
(-0.0502926677 -0.02336674592 0.0241539593)
(-0.04042764771 -0.01486817482 0.02114337803)
(-0.02638507721 -0.007342765707 0.01323885434)
(-0.02577615541 0.0002822758665 0.0007049325728)
(-0.03992849029 0.01030788034 -0.009737335264)
(-0.05951953674 0.02306804476 -0.01372050669)
(-0.06457608523 0.0386079923 -0.01208942692)
(-0.05143192403 0.05211906722 -0.006229751178)
(-0.02201752301 0.06000147216 -0.002922349155)
(0.008803369697 0.0559036362 -0.0008109913945)
(0.03696061463 0.04401110688 -0.003301155654)
(0.05844259313 0.02867315045 -0.002075893385)
(0.07792248233 0.01498843646 -0.002173558792)
(0.09339029127 0.003143370016 0.0004371134354)
(0.07274698076 -0.005982342891 0.002325026162)
(0.05284566763 -0.01621046169 0.003213331149)
(0.02801538292 -0.027598644 0.006675371617)
(0.001363202258 -0.03190520545 0.008637728224)
(-0.02260878452 -0.03020942487 0.01431149712)
(-0.04246174594 -0.0225993965 0.01876883305)
(-0.04501841753 -0.01527475235 0.02367230709)
(-0.03577340108 -0.00875560563 0.02149768762)
(-0.02216759046 -0.003768696628 0.01371421932)
(-0.02064633735 0.0007058722672 0.0006428574249)
(-0.03272511375 0.008042829724 -0.01053475229)
(-0.04997746179 0.01928483616 -0.01488822614)
(-0.05453738296 0.03415661473 -0.01304922113)
(-0.04394919489 0.04747846518 -0.00681797298)
(-0.02065772182 0.05551252771 -0.003037718297)
(0.003194918835 0.05177717343 -0.0006603840715)
(0.02752575974 0.04023357756 -0.002592989299)
(0.04860115476 0.02590012712 -0.0007448687639)
(0.06939086112 0.01358163536 -0.0002844156469)
(0.08746957409 0.00275883112 0.00146749755)
(0.06526778868 -0.006064646179 0.001997888629)
(0.04582717502 -0.01531209146 0.002248690592)
(0.02322116117 -0.02528130943 0.004859014552)
(0.001133722574 -0.02776213113 0.006385856688)
(-0.0190501474 -0.02520153185 0.01174590953)
(-0.03731503709 -0.01758453227 0.01658297666)
(-0.0405279428 -0.01076743601 0.02228299638)
(-0.03232677129 -0.005050258669 0.02106801631)
(-0.01973103143 -0.001708048591 0.01361234587)
(-0.01745477299 0.0008142632031 0.0006055668655)
(-0.02682226784 0.006141325749 -0.01093013567)
(-0.04109453217 0.01623880356 -0.01550758271)
(-0.04468842598 0.03062497027 -0.01356421774)
(-0.03638192014 0.04394047832 -0.007195001351)
(-0.01901491679 0.05221749814 -0.003177204632)
(-0.002030074702 0.04917266895 -0.0007069930537)
(0.01862233079 0.03855290453 -0.001992607679)
(0.03954908572 0.02521524019 0.0004668691627)
(0.06151558859 0.01393985424 0.001687959049)
(0.08178792354 0.003089999826 0.002499254508)
(0.05770580741 -0.006560300897 0.001614182355)
(0.03932193498 -0.01595418906 0.001305413435)
(0.0192693493 -0.02509645333 0.002920734271)
(0.001440801512 -0.02671921365 0.004034992206)
(-0.01540856636 -0.02436632568 0.008909771185)
(-0.03226518885 -0.01682684403 0.01389483376)
(-0.0361760227 -0.009878131274 0.02014826267)
(-0.02939810246 -0.004025768505 0.01983920086)
(-0.01805224141 -0.00125576362 0.01308583067)
(-0.0151235744 0.0005275688543 0.000556443382)
(-0.02184707237 0.004818171626 -0.01073010422)
(-0.03270416914 0.01407085326 -0.01533207975)
(-0.03499830685 0.0279064015 -0.0134634507)
(-0.02872852676 0.04084283073 -0.007404798341)
(-0.01698893246 0.04934926887 -0.003574983026)
(-0.006489319555 0.04743751428 -0.001209300552)
(0.01055084348 0.03866514495 -0.001963398926)
(0.03115705269 0.02643185849 0.001104522133)
(0.05370528504 0.01592938708 0.003242677527)
(0.07538443556 0.00397327371 0.003338249602)
(0.04942057605 -0.007378182804 0.001173111221)
(0.03277904824 -0.01761443762 0.000356339798)
(0.01565577367 -0.02635859284 0.001118192452)
(0.001665977599 -0.02771014992 0.001840242121)
(-0.01205210153 -0.02614822163 0.006176339792)
(-0.02707946184 -0.0186881114 0.01098525155)
(-0.03149522346 -0.01111677602 0.01732919158)
(-0.02625695778 -0.004492834699 0.01781061708)
(-0.01653820183 -0.001248236672 0.01204525674)
(-0.01318612234 0.0004284132838 0.0007459819512)
(-0.01727275047 0.004386780827 -0.009687022169)
(-0.02480609762 0.013122445 -0.01410047777)
(-0.02580287761 0.02611351854 -0.01244943608)
(-0.02125912211 0.03809430835 -0.007152055325)
(-0.01437545103 0.04653296891 -0.003941633242)
(-0.00960007002 0.04614680033 -0.002001801831)
(0.003740576935 0.04040650468 -0.002332081722)
(0.02343822088 0.02962728928 0.001157375325)
(0.04559783046 0.0195602499 0.004138350116)
(0.06767096183 0.005599474369 0.003807328415)
(0.04011030052 -0.008439910056 0.0006686312071)
(0.02595559137 -0.01973397124 -0.0004298658094)
(0.01216923547 -0.02839652465 -0.000372322683)
(0.001603308804 -0.02984113846 0.000168721144)
(-0.009026734818 -0.02926215657 0.003863390544)
(-0.02164877487 -0.02215501733 0.008181228875)
(-0.0261587552 -0.01370335151 0.01405125832)
(-0.02244492141 -0.005393811795 0.01508162023)
(-0.01459497899 -0.0006751288347 0.01051649925)
(-0.01116340939 0.002025824583 0.0009945964724)
(-0.01289739093 0.006055228158 -0.00791757036)
(-0.01737524686 0.01393732315 -0.01188784706)
(-0.01737778598 0.02538243338 -0.01062249939)
(-0.01432036618 0.03554028048 -0.006428400724)
(-0.0113112091 0.04347292651 -0.004132550371)
(-0.01083060845 0.04476867559 -0.002769593324)
(-0.001152341522 0.04307799494 -0.002855396236)
(0.01638770841 0.03439891592 0.0007680576548)
(0.03668343745 0.02465773053 0.004158941543)
(0.05754789861 0.008098032785 0.003747399178)
(0.02958135092 -0.009540405256 0.0002750196292)
(0.01871916359 -0.02176553679 -0.0009335220756)
(0.008542442723 -0.03037168471 -0.001212042378)
(0.001066812157 -0.03184499316 -0.0008188453935)
(-0.006615994587 -0.03177832486 0.002158773469)
(-0.01609358697 -0.02462334942 0.005711111333)
(-0.01966764264 -0.0149964718 0.01053481943)
(-0.01706952003 -0.00486188547 0.0115687108)
(-0.0113119003 0.001510060138 0.008271586772)
(-0.008448252542 0.005328815154 0.0010751195)
(-0.008876503051 0.009596144614 -0.005776529079)
(-0.01116699345 0.0161882532 -0.00895458589)
(-0.01055407114 0.0254941054 -0.00804531052)
(-0.008488263282 0.03303680537 -0.005096117134)
(-0.007860195863 0.03969164566 -0.003718230943)
(-0.009884529973 0.04251680225 -0.002984651619)
(-0.003608108624 0.04510942385 -0.002893218619)
(0.01039068808 0.03919449073 0.0003069984986)
(0.02697514101 0.03006703133 0.003495204905)
(0.04446155728 0.01101054734 0.003145579872)
(0.01805905109 -0.01029798115 5.266776582e-05)
(0.01127250861 -0.02298348175 -0.0008564197653)
(0.005068124946 -0.03147803679 -0.001186198717)
(0.0006166933748 -0.03275255277 -0.0008924402033)
(-0.003924469364 -0.03275694251 0.001034438098)
(-0.009801793992 -0.02536269889 0.003366513943)
(-0.01221133406 -0.0148105045 0.006521221251)
(-0.01079528171 -0.003534125663 0.007326177381)
(-0.007404597461 0.004018609692 0.005341157588)
(-0.005462641257 0.008805903472 0.0008879901755)
(-0.005242670412 0.01327830381 -0.003440517555)
(-0.006155529051 0.01891067946 -0.005473007054)
(-0.005482189507 0.02643857125 -0.004976229424)
(-0.004294319089 0.03166464497 -0.003225827209)
(-0.004613160572 0.03683089359 -0.002565510263)
(-0.007001177766 0.04073680768 -0.00224944284)
(-0.003510149459 0.04709922914 -0.002113163668)
(0.005738115737 0.04358890964 9.840525022e-05)
(0.01673753381 0.03486882779 0.002343795146)
(0.02845737192 0.01362934443 0.002109858417)
(0.0061363707 -0.01069234044 -2.608331017e-05)
(0.003797465351 -0.02364767043 -0.0004287722934)
(0.001665637418 -0.03206137091 -0.0006005479088)
(0.0001728251667 -0.03318451206 -0.000497085645)
(-0.001397270379 -0.03316889565 0.0002325194795)
(-0.003430352222 -0.0256371408 0.001083503042)
(-0.004267236423 -0.01442076804 0.002260224382)
(-0.003785873863 -0.002303406098 0.002577111978)
(-0.002606896473 0.006217698383 0.001934305543)
(-0.00191522562 0.01186607517 0.000368450647)
(-0.001741982457 0.01667194592 -0.001113775984)
(-0.001871174908 0.02177374315 -0.001847644876)
(-0.001544305212 0.02805118718 -0.001676633188)
(-0.001147373105 0.03172647833 -0.001116706964)
(-0.001450270879 0.03575145376 -0.0009547727046)
(-0.002628548657 0.04030287418 -0.000918829033)
(-0.001599401003 0.04936885031 -0.0008401404635)
(0.001730956093 0.04752166785 -1.332144528e-05)
(0.005768618505 0.03879487352 0.0008548527133)
(0.01012569907 0.01570083666 0.0007651915677)
(0.234366828 -0.002042961966 0.002395765198)
(0.1929577733 -0.004775574393 -0.00332665199)
(0.1361156298 -0.006553493217 -0.008351295806)
(0.06336932002 -0.007454998195 -0.009789792588)
(-0.0140781524 -0.008049321867 0.001736432481)
(-0.08967175743 -0.008117229832 0.0216546747)
(-0.1364153887 -0.007338314207 0.03955063034)
(-0.1616114846 -0.005603722881 0.04115264701)
(-0.1669956191 -0.003107985343 0.02302411348)
(-0.1735213614 -2.740517439e-05 -0.008945990062)
(-0.176268909 0.003057399586 -0.03464257383)
(-0.1734119148 0.005621736117 -0.04007581785)
(-0.1448686935 0.007275552246 -0.02364041187)
(-0.09408742368 0.007932660534 0.001924364876)
(-0.02432357281 0.007852785212 0.01827741205)
(0.04293686807 0.007479528107 0.01794686092)
(0.1071618479 0.006841332836 0.008204555668)
(0.1595747924 0.005581899908 0.004651732825)
(0.1988553589 0.003660191097 0.004490395023)
(0.2224460492 0.001331106266 0.004097806726)
(0.2295754149 -0.005975612982 0.002358225029)
(0.1897737639 -0.01404385892 -0.003157709464)
(0.1342129174 -0.01943123992 -0.007945495258)
(0.06229804906 -0.02225203135 -0.009140238858)
(-0.01455517452 -0.02400378507 0.002404293852)
(-0.08916934021 -0.02395386672 0.022043827)
(-0.1346394271 -0.0214810189 0.03927068371)
(-0.1586385591 -0.01627733117 0.04059554146)
(-0.1630910169 -0.008946912001 0.02271312801)
(-0.1692098375 -2.766679117e-05 -0.008483619111)
(-0.172307217 0.008917378618 -0.03361931853)
(-0.1704339329 0.01638825571 -0.03909783113)
(-0.1432147364 0.02136574871 -0.0232725212)
(-0.09364856396 0.02349608768 0.001530994539)
(-0.02461752544 0.02351470969 0.01751378865)
(0.04223756573 0.02252579976 0.01718332805)
(0.1058321552 0.02066974831 0.007597932915)
(0.1573300717 0.01679809466 0.003950402046)
(0.1958437057 0.01094912994 0.003691106083)
(0.2188922834 0.003944882207 0.003619320658)
(0.2202809234 -0.009431588549 0.002416321432)
(0.1834667054 -0.02241100431 -0.002662712763)
(0.1303069824 -0.03148498584 -0.006994561017)
(0.06010578366 -0.03644710572 -0.007842118469)
(-0.01532239683 -0.03927102143 0.003682866935)
(-0.08792455891 -0.03860879114 0.02275134986)
(-0.1310181615 -0.03407658515 0.03884049065)
(-0.1527866745 -0.02545236392 0.03967544773)
(-0.1555535621 -0.01369777566 0.0222562423)
(-0.1609464893 0.0003033552369 -0.007545756869)
(-0.1647085075 0.01429596476 -0.03163473442)
(-0.1646328478 0.02610432189 -0.03714745227)
(-0.1398421474 0.03422690787 -0.02242815147)
(-0.09254425055 0.03813925556 0.0009949839583)
(-0.0249740462 0.03867425222 0.0163737233)
(0.0409615483 0.03741427007 0.01614580969)
(0.1031421123 0.0342977979 0.006815127294)
(0.1527090948 0.02773422795 0.002964990671)
(0.1897559574 0.01793988231 0.002339835647)
(0.2118708973 0.006352853525 0.002780877408)
(0.207174435 -0.01204200435 0.002684564649)
(0.1742279404 -0.02914470727 -0.001607066412)
(0.1242943855 -0.04186099401 -0.005462495028)
(0.05675594966 -0.04913110902 -0.005932181753)
(-0.01614224665 -0.05298114499 0.005341827156)
(-0.08555292109 -0.05130754908 0.02373789125)
(-0.1253831899 -0.04442419922 0.0383348548)
(-0.1442823274 -0.03253436406 0.03859829663)
(-0.144944447 -0.01705767133 0.02174667657)
(-0.1494944902 0.000840951763 -0.006293247857)
(-0.1541313818 0.01872205764 -0.02897138105)
(-0.156378892 0.03400131825 -0.03440982768)
(-0.1347143061 0.04501902205 -0.02102591662)
(-0.09048276821 0.05100673747 0.0006410129681)
(-0.02509055297 0.05258361793 0.01529167849)
(0.03918587599 0.05137738379 0.01524160364)
(0.09902132231 0.04693090717 0.006246729295)
(0.145764062 0.03768795645 0.001946317536)
(0.1807004893 0.02418527033 0.0007409559626)
(0.2016432688 0.008426284113 0.001663770472)
(0.1913082231 -0.01348151823 0.003258081587)
(0.1624541123 -0.03357643251 9.5943291e-05)
(0.1161979359 -0.04954708483 -0.003119056459)
(0.05221075798 -0.05909659342 -0.003313333321)
(-0.01692346759 -0.06390196833 0.007656156187)
(-0.08193689738 -0.06115620555 0.02522542377)
(-0.1177956942 -0.05194125675 0.0383421564)
(-0.1334980005 -0.03719265788 0.03788527021)
(-0.1320318359 -0.01898345496 0.02148689737)
(-0.1357426545 0.001412467496 -0.004809717952)
(-0.1413417711 0.02175723578 -0.02598246555)
(-0.1460848874 0.039529898 -0.03125451232)
(-0.1278310885 0.05302415543 -0.01930396206)
(-0.08717746081 0.06115257551 0.0004813452175)
(-0.02467455243 0.06411851684 0.01432788272)
(0.03700338904 0.06305073928 0.01460282708)
(0.09348741497 0.05729383962 0.005943492169)
(0.136611118 0.04555503072 0.001099571751)
(0.1690211117 0.02908038624 -0.000971647499)
(0.1887091966 0.009988423664 0.0004211371986)
(0.1740730982 -0.013605197 0.004018177052)
(0.1488205203 -0.03533303621 0.002405389908)
(0.1062944509 -0.05381143069 6.260705874e-05)
(0.04658949348 -0.06534174727 0.0002335814909)
(-0.01765152539 -0.07097862876 0.01071962298)
(-0.07715410332 -0.06725642474 0.02741379173)
(-0.1084894947 -0.05606256392 0.03896099876)
(-0.1210404201 -0.03921081514 0.03764721624)
(-0.1177273222 -0.01950242113 0.02141186695)
(-0.1207861022 0.001786783089 -0.003400731377)
(-0.1272638256 0.02306457735 -0.02315222796)
(-0.1343223424 0.04221946606 -0.02827136844)
(-0.1194423837 0.05770586302 -0.01768539242)
(-0.0826270948 0.06775485678 0.0002353914503)
(-0.02372047538 0.07210712743 0.01331205782)
(0.03438796716 0.07093483017 0.01390369281)
(0.08665934159 0.06391515023 0.00567294956)
(0.1257806067 0.05022364821 0.0001634873381)
(0.1554857979 0.03193827901 -0.002664220529)
(0.1738875785 0.01088502834 -0.0008924798604)
(0.1568866498 -0.0127072326 0.004794735236)
(0.1341362596 -0.03469467845 0.004999554707)
(0.09504886086 -0.05467701029 0.004093802672)
(0.04007887586 -0.06746558651 0.004906537866)
(-0.01831177304 -0.0736430086 0.01495253237)
(-0.07143650535 -0.06900462778 0.03049903476)
(-0.09801116117 -0.05655942959 0.04042451197)
(-0.107704077 -0.03868171285 0.03800386078)
(-0.103116616 -0.01889788052 0.02159051425)
(-0.1057342929 0.001790248717 -0.002167601131)
(-0.112834061 0.02247302667 -0.02089236984)
(-0.1216456266 0.04196417599 -0.02595052914)
(-0.1098001218 0.05883257104 -0.0166790272)
(-0.07699491115 0.07046371898 -0.0005437413749)
(-0.02241144117 0.07587778096 0.01164131908)
(0.0312244313 0.07415720341 0.01250226116)
(0.07883395274 0.06598183322 0.004737074078)
(0.1139479867 0.05113780023 -0.001158873256)
(0.1411221961 0.03240081953 -0.004352781042)
(0.158278373 0.01096152639 -0.00204924111)
(0.1407360794 -0.01134873934 0.005255914572)
(0.1192657534 -0.03257932966 0.007226529509)
(0.08321537322 -0.05287052339 0.008246674035)
(0.03321002477 -0.0659482439 0.01027209802)
(-0.01875217249 -0.07196983915 0.02002624918)
(-0.06510694836 -0.06642728456 0.03430543037)
(-0.08708878867 -0.05350438398 0.04259403979)
(-0.09446112571 -0.0358066856 0.03902920164)
(-0.0891738569 -0.01732381075 0.02220964222)
(-0.09160995375 0.001351189129 -0.001121741777)
(-0.09893063629 0.02022050407 -0.01939370577)
(-0.1086698584 0.03902490203 -0.02472026659)
(-0.09932547552 0.0566329182 -0.01659474075)
(-0.07058888769 0.06946649601 -0.002083659027)
(-0.02110816589 0.07569337229 0.009123153113)
(0.02739034343 0.07309316728 0.01005331788)
(0.07035809525 0.06389989396 0.002899820412)
(0.1019693509 0.04865921855 -0.002845895921)
(0.12698623 0.03069408296 -0.005736818042)
(0.1430675678 0.01023003738 -0.002861571209)
(0.1259979283 -0.009979477497 0.005274124286)
(0.1049016247 -0.02979291065 0.008603464011)
(0.07156337607 -0.04934182898 0.01179709167)
(0.02662443571 -0.06172821407 0.01539620639)
(-0.01864432432 -0.06677153406 0.02516443216)
(-0.05840038355 -0.06028122571 0.03826149621)
(-0.07639343885 -0.04751126414 0.04527334528)
(-0.08216613621 -0.03096337779 0.04077990553)
(-0.07689811407 -0.01481722817 0.02341812849)
(-0.07925118566 0.000775932372 -0.0001669005348)
(-0.08625889256 0.0169156467 -0.01879440931)
(-0.09595547568 0.03423103674 -0.02465206487)
(-0.08831876979 0.05198042912 -0.01745872663)
(-0.06354419286 0.06571869891 -0.004190935599)
(-0.01985924445 0.07274361965 0.006140562409)
(0.02287295098 0.06940937332 0.007130656459)
(0.06151980726 0.0595119398 0.000697977195)
(0.09039391482 0.04437192775 -0.004170577919)
(0.1138574121 0.02785574563 -0.006318252345)
(0.1291888962 0.009059549002 -0.002988974325)
(0.1127746323 -0.008887820696 0.004804256625)
(0.09155678094 -0.02694732792 0.008853599628)
(0.06075162589 -0.0451251605 0.01392310624)
(0.02094730722 -0.05607749774 0.01918844577)
(-0.01770988024 -0.05946281902 0.02926447762)
(-0.05149994437 -0.05191139027 0.04161307644)
(-0.06638711649 -0.03957763951 0.04807144368)
(-0.07138548554 -0.02472085651 0.04311955669)
(-0.066782662 -0.01153130489 0.02522059028)
(-0.06922801957 0.0004001816748 0.0006862509625)
(-0.07533059243 0.01326643463 -0.01899632153)
(-0.0839306687 0.02856187587 -0.02568580769)
(-0.07710937985 0.04605992311 -0.01914260915)
(-0.05594307976 0.06054253332 -0.006571978872)
(-0.01852209741 0.06848723758 0.003244001121)
(0.01801064576 0.06488272301 0.004414149981)
(0.0526081116 0.05462023881 -0.001196158789)
(0.0795081926 0.03980729487 -0.004684165924)
(0.1019297216 0.02491772863 -0.005733579925)
(0.116828594 0.00784966312 -0.002377655682)
(0.1008079841 -0.008130623756 0.004024025766)
(0.07939779219 -0.02428009072 0.008119020492)
(0.0510839565 -0.04086309111 0.01416936744)
(0.01655198318 -0.05003688592 0.0206103399)
(-0.01567217496 -0.05152090404 0.03111811862)
(-0.04434507875 -0.04292375094 0.04332476743)
(-0.05719266763 -0.03110764445 0.05023693498)
(-0.06237717572 -0.01813470477 0.04555639204)
(-0.059187267 -0.008025648065 0.02723205127)
(-0.06177057198 0.0002147491907 0.00141482969)
(-0.06639765246 0.009827046695 -0.01999709958)
(-0.0728206567 0.02293699761 -0.0275831578)
(-0.06575736469 0.03995843003 -0.02133790461)
(-0.04772829409 0.05497580926 -0.00880200675)
(-0.01682187856 0.0638619502 0.001034116256)
(0.0130349437 0.06044860218 0.002624056077)
(0.04373641261 0.05023104004 -0.002022196681)
(0.06931546914 0.03604181033 -0.003882671557)
(0.09118020793 0.02270908231 -0.003843612401)
(0.1059015145 0.007008644077 -0.001033007092)
(0.08999242863 -0.007586949689 0.00326364699)
(0.06852480715 -0.02174466998 0.006811835624)
(0.04265292366 -0.03703786871 0.01284075791)
(0.01347467436 -0.04424018599 0.01967054901)
(-0.01265201539 -0.04411200313 0.03031136642)
(-0.03706683626 -0.034861065 0.04274411088)
(-0.04888078193 -0.02367370713 0.05115020181)
(-0.05510780134 -0.0124407434 0.04743208242)
(-0.05386374343 -0.004940500912 0.02913014163)
(-0.05666091346 0.0003256766203 0.001885640829)
(-0.05931602687 0.007184866178 -0.02138305714)
(-0.06267861741 0.01849207169 -0.02993911555)
(-0.05450910248 0.0347938331 -0.02375311493)
(-0.03908797468 0.04978400521 -0.01074114541)